+ 0.50779 0 2 tcp 40 ------- 2 0.0 3.0 0 0
- 0.50779 0 2 tcp 40 ------- 2 0.0 3.0 0 0
r 0.51811 0 2 tcp 40 ------- 2 0.0 3.0 0 0
+ 0.51811 2 3 tcp 40 ------- 2 0.0 3.0 0 0
- 0.51811 2 3 tcp 40 ------- 2 0.0 3.0 0 0
r 0.52843 2 3 tcp 40 ------- 2 0.0 3.0 0 0
+ 0.52843 3 2 ack 40 ------- 2 3.0 0.0 0 1
- 0.52843 3 2 ack 40 ------- 2 3.0 0.0 0 1
r 0.53875 3 2 ack 40 ------- 2 3.0 0.0 0 1
+ 0.53875 2 0 ack 40 ------- 2 3.0 0.0 0 1
- 0.53875 2 0 ack 40 ------- 2 3.0 0.0 0 1
r 0.54907 2 0 ack 40 ------- 2 3.0 0.0 0 1
+ 0.54907 0 2 tcp 1040 ------- 2 0.0 3.0 1 2
- 0.54907 0 2 tcp 1040 ------- 2 0.0 3.0 1 2
r 0.56739 0 2 tcp 1040 ------- 2 0.0 3.0 1 2
+ 0.56739 2 3 tcp 1040 ------- 2 0.0 3.0 1 2
- 0.56739 2 3 tcp 1040 ------- 2 0.0 3.0 1 2
r 0.58571 2 3 tcp 1040 ------- 2 0.0 3.0 1 2
+ 0.58571 3 2 ack 40 ------- 2 3.0 0.0 1 3
- 0.58571 3 2 ack 40 ------- 2 3.0 0.0 1 3
r 0.59603 3 2 ack 40 ------- 2 3.0 0.0 1 3
+ 0.59603 2 0 ack 40 ------- 2 3.0 0.0 1 3
- 0.59603 2 0 ack 40 ------- 2 3.0 0.0 1 3
+ 0.6 1 2 tcp 40 ------- 1 1.0 3.1 0 4
- 0.6 1 2 tcp 40 ------- 1 1.0 3.1 0 4
r 0.60635 2 0 ack 40 ------- 2 3.0 0.0 1 3
r 0.61032 1 2 tcp 40 ------- 1 1.0 3.1 0 4
+ 0.61032 2 3 tcp 40 ------- 1 1.0 3.1 0 4
- 0.61032 2 3 tcp 40 ------- 1 1.0 3.1 0 4
r 0.62064 2 3 tcp 40 ------- 1 1.0 3.1 0 4
+ 0.62064 3 2 ack 40 ------- 1 3.1 1.0 0 5
- 0.62064 3 2 ack 40 ------- 1 3.1 1.0 0 5
r 0.63096 3 2 ack 40 ------- 1 3.1 1.0 0 5
+ 0.63096 2 1 ack 40 ------- 1 3.1 1.0 0 5
- 0.63096 2 1 ack 40 ------- 1 3.1 1.0 0 5
r 0.64128 2 1 ack 40 ------- 1 3.1 1.0 0 5
+ 0.64128 1 2 tcp 1040 ------- 1 1.0 3.1 1 6
- 0.64128 1 2 tcp 1040 ------- 1 1.0 3.1 1 6
+ 0.64128 1 2 tcp 1040 ------- 1 1.0 3.1 2 7
- 0.6496 1 2 tcp 1040 ------- 1 1.0 3.1 2 7
r 0.6596 1 2 tcp 1040 ------- 1 1.0 3.1 1 6
+ 0.6596 2 3 tcp 1040 ------- 1 1.0 3.1 1 6
- 0.6596 2 3 tcp 1040 ------- 1 1.0 3.1 1 6
r 0.66792 1 2 tcp 1040 ------- 1 1.0 3.1 2 7
+ 0.66792 2 3 tcp 1040 ------- 1 1.0 3.1 2 7
- 0.66792 2 3 tcp 1040 ------- 1 1.0 3.1 2 7
r 0.67792 2 3 tcp 1040 ------- 1 1.0 3.1 1 6
+ 0.67792 3 2 ack 40 ------- 1 3.1 1.0 1 8
- 0.67792 3 2 ack 40 ------- 1 3.1 1.0 1 8
r 0.68624 2 3 tcp 1040 ------- 1 1.0 3.1 2 7
+ 0.68624 3 2 ack 40 ------- 1 3.1 1.0 2 9
- 0.68624 3 2 ack 40 ------- 1 3.1 1.0 2 9
r 0.68824 3 2 ack 40 ------- 1 3.1 1.0 1 8
+ 0.68824 2 1 ack 40 ------- 1 3.1 1.0 1 8
- 0.68824 2 1 ack 40 ------- 1 3.1 1.0 1 8
r 0.69656 3 2 ack 40 ------- 1 3.1 1.0 2 9
+ 0.69656 2 1 ack 40 ------- 1 3.1 1.0 2 9
- 0.69656 2 1 ack 40 ------- 1 3.1 1.0 2 9
r 0.69856 2 1 ack 40 ------- 1 3.1 1.0 1 8
+ 0.69856 1 2 tcp 1040 ------- 1 1.0 3.1 3 10
- 0.69856 1 2 tcp 1040 ------- 1 1.0 3.1 3 10
+ 0.69856 1 2 tcp 1040 ------- 1 1.0 3.1 4 11
r 0.70688 2 1 ack 40 ------- 1 3.1 1.0 2 9
+ 0.70688 1 2 tcp 1040 ------- 1 1.0 3.1 5 12
+ 0.70688 1 2 tcp 1040 ------- 1 1.0 3.1 6 13
- 0.70688 1 2 tcp 1040 ------- 1 1.0 3.1 4 11
- 0.7152 1 2 tcp 1040 ------- 1 1.0 3.1 5 12
r 0.71688 1 2 tcp 1040 ------- 1 1.0 3.1 3 10
+ 0.71688 2 3 tcp 1040 ------- 1 1.0 3.1 3 10
- 0.71688 2 3 tcp 1040 ------- 1 1.0 3.1 3 10
- 0.72352 1 2 tcp 1040 ------- 1 1.0 3.1 6 13
r 0.7252 1 2 tcp 1040 ------- 1 1.0 3.1 4 11
+ 0.7252 2 3 tcp 1040 ------- 1 1.0 3.1 4 11
- 0.7252 2 3 tcp 1040 ------- 1 1.0 3.1 4 11
r 0.73352 1 2 tcp 1040 ------- 1 1.0 3.1 5 12
+ 0.73352 2 3 tcp 1040 ------- 1 1.0 3.1 5 12
- 0.73352 2 3 tcp 1040 ------- 1 1.0 3.1 5 12
r 0.7352 2 3 tcp 1040 ------- 1 1.0 3.1 3 10
+ 0.7352 3 2 ack 40 ------- 1 3.1 1.0 3 14
- 0.7352 3 2 ack 40 ------- 1 3.1 1.0 3 14
r 0.74184 1 2 tcp 1040 ------- 1 1.0 3.1 6 13
+ 0.74184 2 3 tcp 1040 ------- 1 1.0 3.1 6 13
- 0.74184 2 3 tcp 1040 ------- 1 1.0 3.1 6 13
r 0.74352 2 3 tcp 1040 ------- 1 1.0 3.1 4 11
+ 0.74352 3 2 ack 40 ------- 1 3.1 1.0 4 15
- 0.74352 3 2 ack 40 ------- 1 3.1 1.0 4 15
r 0.74552 3 2 ack 40 ------- 1 3.1 1.0 3 14
+ 0.74552 2 1 ack 40 ------- 1 3.1 1.0 3 14
- 0.74552 2 1 ack 40 ------- 1 3.1 1.0 3 14
r 0.75184 2 3 tcp 1040 ------- 1 1.0 3.1 5 12
+ 0.75184 3 2 ack 40 ------- 1 3.1 1.0 5 16
- 0.75184 3 2 ack 40 ------- 1 3.1 1.0 5 16
r 0.75384 3 2 ack 40 ------- 1 3.1 1.0 4 15
+ 0.75384 2 1 ack 40 ------- 1 3.1 1.0 4 15
- 0.75384 2 1 ack 40 ------- 1 3.1 1.0 4 15
r 0.75584 2 1 ack 40 ------- 1 3.1 1.0 3 14
+ 0.75584 1 2 tcp 1040 ------- 1 1.0 3.1 7 17
- 0.75584 1 2 tcp 1040 ------- 1 1.0 3.1 7 17
+ 0.75584 1 2 tcp 1040 ------- 1 1.0 3.1 8 18
r 0.76016 2 3 tcp 1040 ------- 1 1.0 3.1 6 13
+ 0.76016 3 2 ack 40 ------- 1 3.1 1.0 6 19
- 0.76016 3 2 ack 40 ------- 1 3.1 1.0 6 19
r 0.76216 3 2 ack 40 ------- 1 3.1 1.0 5 16
+ 0.76216 2 1 ack 40 ------- 1 3.1 1.0 5 16
- 0.76216 2 1 ack 40 ------- 1 3.1 1.0 5 16
r 0.76416 2 1 ack 40 ------- 1 3.1 1.0 4 15
+ 0.76416 1 2 tcp 1040 ------- 1 1.0 3.1 9 20
+ 0.76416 1 2 tcp 1040 ------- 1 1.0 3.1 10 21
- 0.76416 1 2 tcp 1040 ------- 1 1.0 3.1 8 18
r 0.77048 3 2 ack 40 ------- 1 3.1 1.0 6 19
+ 0.77048 2 1 ack 40 ------- 1 3.1 1.0 6 19
- 0.77048 2 1 ack 40 ------- 1 3.1 1.0 6 19
r 0.77248 2 1 ack 40 ------- 1 3.1 1.0 5 16
+ 0.77248 1 2 tcp 1040 ------- 1 1.0 3.1 11 22
+ 0.77248 1 2 tcp 1040 ------- 1 1.0 3.1 12 23
- 0.77248 1 2 tcp 1040 ------- 1 1.0 3.1 9 20
r 0.77416 1 2 tcp 1040 ------- 1 1.0 3.1 7 17
+ 0.77416 2 3 tcp 1040 ------- 1 1.0 3.1 7 17
- 0.77416 2 3 tcp 1040 ------- 1 1.0 3.1 7 17
r 0.7808 2 1 ack 40 ------- 1 3.1 1.0 6 19
+ 0.7808 1 2 tcp 1040 ------- 1 1.0 3.1 13 24
+ 0.7808 1 2 tcp 1040 ------- 1 1.0 3.1 14 25
- 0.7808 1 2 tcp 1040 ------- 1 1.0 3.1 10 21
r 0.78248 1 2 tcp 1040 ------- 1 1.0 3.1 8 18
+ 0.78248 2 3 tcp 1040 ------- 1 1.0 3.1 8 18
- 0.78248 2 3 tcp 1040 ------- 1 1.0 3.1 8 18
- 0.78912 1 2 tcp 1040 ------- 1 1.0 3.1 11 22
r 0.7908 1 2 tcp 1040 ------- 1 1.0 3.1 9 20
+ 0.7908 2 3 tcp 1040 ------- 1 1.0 3.1 9 20
- 0.7908 2 3 tcp 1040 ------- 1 1.0 3.1 9 20
r 0.79248 2 3 tcp 1040 ------- 1 1.0 3.1 7 17
+ 0.79248 3 2 ack 40 ------- 1 3.1 1.0 7 26
- 0.79248 3 2 ack 40 ------- 1 3.1 1.0 7 26
- 0.79744 1 2 tcp 1040 ------- 1 1.0 3.1 12 23
r 0.79912 1 2 tcp 1040 ------- 1 1.0 3.1 10 21
+ 0.79912 2 3 tcp 1040 ------- 1 1.0 3.1 10 21
- 0.79912 2 3 tcp 1040 ------- 1 1.0 3.1 10 21
r 0.8008 2 3 tcp 1040 ------- 1 1.0 3.1 8 18
+ 0.8008 3 2 ack 40 ------- 1 3.1 1.0 8 27
- 0.8008 3 2 ack 40 ------- 1 3.1 1.0 8 27
r 0.8028 3 2 ack 40 ------- 1 3.1 1.0 7 26
+ 0.8028 2 1 ack 40 ------- 1 3.1 1.0 7 26
- 0.8028 2 1 ack 40 ------- 1 3.1 1.0 7 26
- 0.80576 1 2 tcp 1040 ------- 1 1.0 3.1 13 24
r 0.80744 1 2 tcp 1040 ------- 1 1.0 3.1 11 22
+ 0.80744 2 3 tcp 1040 ------- 1 1.0 3.1 11 22
- 0.80744 2 3 tcp 1040 ------- 1 1.0 3.1 11 22
r 0.80912 2 3 tcp 1040 ------- 1 1.0 3.1 9 20
+ 0.80912 3 2 ack 40 ------- 1 3.1 1.0 9 28
- 0.80912 3 2 ack 40 ------- 1 3.1 1.0 9 28
r 0.81112 3 2 ack 40 ------- 1 3.1 1.0 8 27
+ 0.81112 2 1 ack 40 ------- 1 3.1 1.0 8 27
- 0.81112 2 1 ack 40 ------- 1 3.1 1.0 8 27
r 0.81312 2 1 ack 40 ------- 1 3.1 1.0 7 26
+ 0.81312 1 2 tcp 1040 ------- 1 1.0 3.1 15 29
+ 0.81312 1 2 tcp 1040 ------- 1 1.0 3.1 16 30
- 0.81408 1 2 tcp 1040 ------- 1 1.0 3.1 14 25
r 0.81576 1 2 tcp 1040 ------- 1 1.0 3.1 12 23
+ 0.81576 2 3 tcp 1040 ------- 1 1.0 3.1 12 23
- 0.81576 2 3 tcp 1040 ------- 1 1.0 3.1 12 23
r 0.81744 2 3 tcp 1040 ------- 1 1.0 3.1 10 21
+ 0.81744 3 2 ack 40 ------- 1 3.1 1.0 10 31
- 0.81744 3 2 ack 40 ------- 1 3.1 1.0 10 31
r 0.81944 3 2 ack 40 ------- 1 3.1 1.0 9 28
+ 0.81944 2 1 ack 40 ------- 1 3.1 1.0 9 28
- 0.81944 2 1 ack 40 ------- 1 3.1 1.0 9 28
r 0.82144 2 1 ack 40 ------- 1 3.1 1.0 8 27
+ 0.82144 1 2 tcp 1040 ------- 1 1.0 3.1 17 32
+ 0.82144 1 2 tcp 1040 ------- 1 1.0 3.1 18 33
- 0.8224 1 2 tcp 1040 ------- 1 1.0 3.1 15 29
r 0.82408 1 2 tcp 1040 ------- 1 1.0 3.1 13 24
+ 0.82408 2 3 tcp 1040 ------- 1 1.0 3.1 13 24
- 0.82408 2 3 tcp 1040 ------- 1 1.0 3.1 13 24
r 0.82576 2 3 tcp 1040 ------- 1 1.0 3.1 11 22
+ 0.82576 3 2 ack 40 ------- 1 3.1 1.0 11 34
- 0.82576 3 2 ack 40 ------- 1 3.1 1.0 11 34
r 0.82776 3 2 ack 40 ------- 1 3.1 1.0 10 31
+ 0.82776 2 1 ack 40 ------- 1 3.1 1.0 10 31
- 0.82776 2 1 ack 40 ------- 1 3.1 1.0 10 31
r 0.82976 2 1 ack 40 ------- 1 3.1 1.0 9 28
+ 0.82976 1 2 tcp 1040 ------- 1 1.0 3.1 19 35
+ 0.82976 1 2 tcp 1040 ------- 1 1.0 3.1 20 36
- 0.83072 1 2 tcp 1040 ------- 1 1.0 3.1 16 30
r 0.8324 1 2 tcp 1040 ------- 1 1.0 3.1 14 25
+ 0.8324 2 3 tcp 1040 ------- 1 1.0 3.1 14 25
- 0.8324 2 3 tcp 1040 ------- 1 1.0 3.1 14 25
r 0.83408 2 3 tcp 1040 ------- 1 1.0 3.1 12 23
+ 0.83408 3 2 ack 40 ------- 1 3.1 1.0 12 37
- 0.83408 3 2 ack 40 ------- 1 3.1 1.0 12 37
r 0.83608 3 2 ack 40 ------- 1 3.1 1.0 11 34
+ 0.83608 2 1 ack 40 ------- 1 3.1 1.0 11 34
- 0.83608 2 1 ack 40 ------- 1 3.1 1.0 11 34
r 0.83808 2 1 ack 40 ------- 1 3.1 1.0 10 31
+ 0.83808 1 2 tcp 1040 ------- 1 1.0 3.1 21 38
+ 0.83808 1 2 tcp 1040 ------- 1 1.0 3.1 22 39
- 0.83904 1 2 tcp 1040 ------- 1 1.0 3.1 17 32
r 0.84072 1 2 tcp 1040 ------- 1 1.0 3.1 15 29
+ 0.84072 2 3 tcp 1040 ------- 1 1.0 3.1 15 29
- 0.84072 2 3 tcp 1040 ------- 1 1.0 3.1 15 29
r 0.8424 2 3 tcp 1040 ------- 1 1.0 3.1 13 24
+ 0.8424 3 2 ack 40 ------- 1 3.1 1.0 13 40
- 0.8424 3 2 ack 40 ------- 1 3.1 1.0 13 40
r 0.8444 3 2 ack 40 ------- 1 3.1 1.0 12 37
+ 0.8444 2 1 ack 40 ------- 1 3.1 1.0 12 37
- 0.8444 2 1 ack 40 ------- 1 3.1 1.0 12 37
r 0.8464 2 1 ack 40 ------- 1 3.1 1.0 11 34
+ 0.8464 1 2 tcp 1040 ------- 1 1.0 3.1 23 41
+ 0.8464 1 2 tcp 1040 ------- 1 1.0 3.1 24 42
- 0.84736 1 2 tcp 1040 ------- 1 1.0 3.1 18 33
r 0.84904 1 2 tcp 1040 ------- 1 1.0 3.1 16 30
+ 0.84904 2 3 tcp 1040 ------- 1 1.0 3.1 16 30
- 0.84904 2 3 tcp 1040 ------- 1 1.0 3.1 16 30
r 0.85072 2 3 tcp 1040 ------- 1 1.0 3.1 14 25
+ 0.85072 3 2 ack 40 ------- 1 3.1 1.0 14 43
- 0.85072 3 2 ack 40 ------- 1 3.1 1.0 14 43
r 0.85272 3 2 ack 40 ------- 1 3.1 1.0 13 40
+ 0.85272 2 1 ack 40 ------- 1 3.1 1.0 13 40
- 0.85272 2 1 ack 40 ------- 1 3.1 1.0 13 40
r 0.85472 2 1 ack 40 ------- 1 3.1 1.0 12 37
+ 0.85472 1 2 tcp 1040 ------- 1 1.0 3.1 25 44
+ 0.85472 1 2 tcp 1040 ------- 1 1.0 3.1 26 45
- 0.85568 1 2 tcp 1040 ------- 1 1.0 3.1 19 35
r 0.85736 1 2 tcp 1040 ------- 1 1.0 3.1 17 32
+ 0.85736 2 3 tcp 1040 ------- 1 1.0 3.1 17 32
- 0.85736 2 3 tcp 1040 ------- 1 1.0 3.1 17 32
r 0.85904 2 3 tcp 1040 ------- 1 1.0 3.1 15 29
+ 0.85904 3 2 ack 40 ------- 1 3.1 1.0 15 46
- 0.85904 3 2 ack 40 ------- 1 3.1 1.0 15 46
r 0.86104 3 2 ack 40 ------- 1 3.1 1.0 14 43
+ 0.86104 2 1 ack 40 ------- 1 3.1 1.0 14 43
- 0.86104 2 1 ack 40 ------- 1 3.1 1.0 14 43
r 0.86304 2 1 ack 40 ------- 1 3.1 1.0 13 40
+ 0.86304 1 2 tcp 1040 ------- 1 1.0 3.1 27 47
+ 0.86304 1 2 tcp 1040 ------- 1 1.0 3.1 28 48
- 0.864 1 2 tcp 1040 ------- 1 1.0 3.1 20 36
r 0.86568 1 2 tcp 1040 ------- 1 1.0 3.1 18 33
+ 0.86568 2 3 tcp 1040 ------- 1 1.0 3.1 18 33
- 0.86568 2 3 tcp 1040 ------- 1 1.0 3.1 18 33
r 0.86736 2 3 tcp 1040 ------- 1 1.0 3.1 16 30
+ 0.86736 3 2 ack 40 ------- 1 3.1 1.0 16 49
- 0.86736 3 2 ack 40 ------- 1 3.1 1.0 16 49
r 0.86936 3 2 ack 40 ------- 1 3.1 1.0 15 46
+ 0.86936 2 1 ack 40 ------- 1 3.1 1.0 15 46
- 0.86936 2 1 ack 40 ------- 1 3.1 1.0 15 46
r 0.87136 2 1 ack 40 ------- 1 3.1 1.0 14 43
+ 0.87136 1 2 tcp 1040 ------- 1 1.0 3.1 29 50
+ 0.87136 1 2 tcp 1040 ------- 1 1.0 3.1 30 51
d 0.87136 1 2 tcp 1040 ------- 1 1.0 3.1 30 51
- 0.87232 1 2 tcp 1040 ------- 1 1.0 3.1 21 38
r 0.874 1 2 tcp 1040 ------- 1 1.0 3.1 19 35
+ 0.874 2 3 tcp 1040 ------- 1 1.0 3.1 19 35
- 0.874 2 3 tcp 1040 ------- 1 1.0 3.1 19 35
r 0.87568 2 3 tcp 1040 ------- 1 1.0 3.1 17 32
+ 0.87568 3 2 ack 40 ------- 1 3.1 1.0 17 52
- 0.87568 3 2 ack 40 ------- 1 3.1 1.0 17 52
r 0.87768 3 2 ack 40 ------- 1 3.1 1.0 16 49
+ 0.87768 2 1 ack 40 ------- 1 3.1 1.0 16 49
- 0.87768 2 1 ack 40 ------- 1 3.1 1.0 16 49
r 0.87968 2 1 ack 40 ------- 1 3.1 1.0 15 46
+ 0.87968 1 2 tcp 1040 ------- 1 1.0 3.1 31 53
+ 0.87968 1 2 tcp 1040 ------- 1 1.0 3.1 32 54
d 0.87968 1 2 tcp 1040 ------- 1 1.0 3.1 32 54
- 0.88064 1 2 tcp 1040 ------- 1 1.0 3.1 22 39
r 0.88232 1 2 tcp 1040 ------- 1 1.0 3.1 20 36
+ 0.88232 2 3 tcp 1040 ------- 1 1.0 3.1 20 36
- 0.88232 2 3 tcp 1040 ------- 1 1.0 3.1 20 36
r 0.884 2 3 tcp 1040 ------- 1 1.0 3.1 18 33
+ 0.884 3 2 ack 40 ------- 1 3.1 1.0 18 55
- 0.884 3 2 ack 40 ------- 1 3.1 1.0 18 55
r 0.886 3 2 ack 40 ------- 1 3.1 1.0 17 52
+ 0.886 2 1 ack 40 ------- 1 3.1 1.0 17 52
- 0.886 2 1 ack 40 ------- 1 3.1 1.0 17 52
r 0.888 2 1 ack 40 ------- 1 3.1 1.0 16 49
+ 0.888 1 2 tcp 1040 ------- 1 1.0 3.1 33 56
+ 0.888 1 2 tcp 1040 ------- 1 1.0 3.1 34 57
d 0.888 1 2 tcp 1040 ------- 1 1.0 3.1 34 57
- 0.88896 1 2 tcp 1040 ------- 1 1.0 3.1 23 41
r 0.89064 1 2 tcp 1040 ------- 1 1.0 3.1 21 38
+ 0.89064 2 3 tcp 1040 ------- 1 1.0 3.1 21 38
- 0.89064 2 3 tcp 1040 ------- 1 1.0 3.1 21 38
r 0.89232 2 3 tcp 1040 ------- 1 1.0 3.1 19 35
+ 0.89232 3 2 ack 40 ------- 1 3.1 1.0 19 58
- 0.89232 3 2 ack 40 ------- 1 3.1 1.0 19 58
r 0.89432 3 2 ack 40 ------- 1 3.1 1.0 18 55
+ 0.89432 2 1 ack 40 ------- 1 3.1 1.0 18 55
- 0.89432 2 1 ack 40 ------- 1 3.1 1.0 18 55
r 0.89632 2 1 ack 40 ------- 1 3.1 1.0 17 52
+ 0.89632 1 2 tcp 1040 ------- 1 1.0 3.1 35 59
+ 0.89632 1 2 tcp 1040 ------- 1 1.0 3.1 36 60
d 0.89632 1 2 tcp 1040 ------- 1 1.0 3.1 36 60
- 0.89728 1 2 tcp 1040 ------- 1 1.0 3.1 24 42
r 0.89896 1 2 tcp 1040 ------- 1 1.0 3.1 22 39
+ 0.89896 2 3 tcp 1040 ------- 1 1.0 3.1 22 39
- 0.89896 2 3 tcp 1040 ------- 1 1.0 3.1 22 39
r 0.90064 2 3 tcp 1040 ------- 1 1.0 3.1 20 36
+ 0.90064 3 2 ack 40 ------- 1 3.1 1.0 20 61
- 0.90064 3 2 ack 40 ------- 1 3.1 1.0 20 61
r 0.90264 3 2 ack 40 ------- 1 3.1 1.0 19 58
+ 0.90264 2 1 ack 40 ------- 1 3.1 1.0 19 58
- 0.90264 2 1 ack 40 ------- 1 3.1 1.0 19 58
r 0.90464 2 1 ack 40 ------- 1 3.1 1.0 18 55
+ 0.90464 1 2 tcp 1040 ------- 1 1.0 3.1 37 62
+ 0.90464 1 2 tcp 1040 ------- 1 1.0 3.1 38 63
d 0.90464 1 2 tcp 1040 ------- 1 1.0 3.1 38 63
- 0.9056 1 2 tcp 1040 ------- 1 1.0 3.1 25 44
r 0.90728 1 2 tcp 1040 ------- 1 1.0 3.1 23 41
+ 0.90728 2 3 tcp 1040 ------- 1 1.0 3.1 23 41
- 0.90728 2 3 tcp 1040 ------- 1 1.0 3.1 23 41
r 0.90896 2 3 tcp 1040 ------- 1 1.0 3.1 21 38
+ 0.90896 3 2 ack 40 ------- 1 3.1 1.0 21 64
- 0.90896 3 2 ack 40 ------- 1 3.1 1.0 21 64
r 0.91096 3 2 ack 40 ------- 1 3.1 1.0 20 61
+ 0.91096 2 1 ack 40 ------- 1 3.1 1.0 20 61
- 0.91096 2 1 ack 40 ------- 1 3.1 1.0 20 61
r 0.91296 2 1 ack 40 ------- 1 3.1 1.0 19 58
+ 0.91296 1 2 tcp 1040 ------- 1 1.0 3.1 39 65
- 0.91392 1 2 tcp 1040 ------- 1 1.0 3.1 26 45
r 0.9156 1 2 tcp 1040 ------- 1 1.0 3.1 24 42
+ 0.9156 2 3 tcp 1040 ------- 1 1.0 3.1 24 42
- 0.9156 2 3 tcp 1040 ------- 1 1.0 3.1 24 42
r 0.91728 2 3 tcp 1040 ------- 1 1.0 3.1 22 39
+ 0.91728 3 2 ack 40 ------- 1 3.1 1.0 22 66
- 0.91728 3 2 ack 40 ------- 1 3.1 1.0 22 66
r 0.91928 3 2 ack 40 ------- 1 3.1 1.0 21 64
+ 0.91928 2 1 ack 40 ------- 1 3.1 1.0 21 64
- 0.91928 2 1 ack 40 ------- 1 3.1 1.0 21 64
r 0.92128 2 1 ack 40 ------- 1 3.1 1.0 20 61
+ 0.92128 1 2 tcp 1040 ------- 1 1.0 3.1 40 67
- 0.92224 1 2 tcp 1040 ------- 1 1.0 3.1 27 47
r 0.92392 1 2 tcp 1040 ------- 1 1.0 3.1 25 44
+ 0.92392 2 3 tcp 1040 ------- 1 1.0 3.1 25 44
- 0.92392 2 3 tcp 1040 ------- 1 1.0 3.1 25 44
r 0.9256 2 3 tcp 1040 ------- 1 1.0 3.1 23 41
+ 0.9256 3 2 ack 40 ------- 1 3.1 1.0 23 68
- 0.9256 3 2 ack 40 ------- 1 3.1 1.0 23 68
r 0.9276 3 2 ack 40 ------- 1 3.1 1.0 22 66
+ 0.9276 2 1 ack 40 ------- 1 3.1 1.0 22 66
- 0.9276 2 1 ack 40 ------- 1 3.1 1.0 22 66
r 0.9296 2 1 ack 40 ------- 1 3.1 1.0 21 64
+ 0.9296 1 2 tcp 1040 ------- 1 1.0 3.1 41 69
- 0.93056 1 2 tcp 1040 ------- 1 1.0 3.1 28 48
r 0.93224 1 2 tcp 1040 ------- 1 1.0 3.1 26 45
+ 0.93224 2 3 tcp 1040 ------- 1 1.0 3.1 26 45
- 0.93224 2 3 tcp 1040 ------- 1 1.0 3.1 26 45
r 0.93392 2 3 tcp 1040 ------- 1 1.0 3.1 24 42
+ 0.93392 3 2 ack 40 ------- 1 3.1 1.0 24 70
- 0.93392 3 2 ack 40 ------- 1 3.1 1.0 24 70
r 0.93592 3 2 ack 40 ------- 1 3.1 1.0 23 68
+ 0.93592 2 1 ack 40 ------- 1 3.1 1.0 23 68
- 0.93592 2 1 ack 40 ------- 1 3.1 1.0 23 68
r 0.93792 2 1 ack 40 ------- 1 3.1 1.0 22 66
+ 0.93792 1 2 tcp 1040 ------- 1 1.0 3.1 42 71
- 0.93888 1 2 tcp 1040 ------- 1 1.0 3.1 29 50
r 0.94056 1 2 tcp 1040 ------- 1 1.0 3.1 27 47
+ 0.94056 2 3 tcp 1040 ------- 1 1.0 3.1 27 47
- 0.94056 2 3 tcp 1040 ------- 1 1.0 3.1 27 47
r 0.94224 2 3 tcp 1040 ------- 1 1.0 3.1 25 44
+ 0.94224 3 2 ack 40 ------- 1 3.1 1.0 25 72
- 0.94224 3 2 ack 40 ------- 1 3.1 1.0 25 72
r 0.94424 3 2 ack 40 ------- 1 3.1 1.0 24 70
+ 0.94424 2 1 ack 40 ------- 1 3.1 1.0 24 70
- 0.94424 2 1 ack 40 ------- 1 3.1 1.0 24 70
r 0.94624 2 1 ack 40 ------- 1 3.1 1.0 23 68
+ 0.94624 1 2 tcp 1040 ------- 1 1.0 3.1 43 73
- 0.9472 1 2 tcp 1040 ------- 1 1.0 3.1 31 53
r 0.94888 1 2 tcp 1040 ------- 1 1.0 3.1 28 48
+ 0.94888 2 3 tcp 1040 ------- 1 1.0 3.1 28 48
- 0.94888 2 3 tcp 1040 ------- 1 1.0 3.1 28 48
r 0.95056 2 3 tcp 1040 ------- 1 1.0 3.1 26 45
+ 0.95056 3 2 ack 40 ------- 1 3.1 1.0 26 74
- 0.95056 3 2 ack 40 ------- 1 3.1 1.0 26 74
r 0.95256 3 2 ack 40 ------- 1 3.1 1.0 25 72
+ 0.95256 2 1 ack 40 ------- 1 3.1 1.0 25 72
- 0.95256 2 1 ack 40 ------- 1 3.1 1.0 25 72
r 0.95456 2 1 ack 40 ------- 1 3.1 1.0 24 70
+ 0.95456 1 2 tcp 1040 ------- 1 1.0 3.1 44 75
- 0.95552 1 2 tcp 1040 ------- 1 1.0 3.1 33 56
r 0.9572 1 2 tcp 1040 ------- 1 1.0 3.1 29 50
+ 0.9572 2 3 tcp 1040 ------- 1 1.0 3.1 29 50
- 0.9572 2 3 tcp 1040 ------- 1 1.0 3.1 29 50
r 0.95888 2 3 tcp 1040 ------- 1 1.0 3.1 27 47
+ 0.95888 3 2 ack 40 ------- 1 3.1 1.0 27 76
- 0.95888 3 2 ack 40 ------- 1 3.1 1.0 27 76
r 0.96088 3 2 ack 40 ------- 1 3.1 1.0 26 74
+ 0.96088 2 1 ack 40 ------- 1 3.1 1.0 26 74
- 0.96088 2 1 ack 40 ------- 1 3.1 1.0 26 74
r 0.96288 2 1 ack 40 ------- 1 3.1 1.0 25 72
+ 0.96288 1 2 tcp 1040 ------- 1 1.0 3.1 45 77
- 0.96384 1 2 tcp 1040 ------- 1 1.0 3.1 35 59
r 0.96552 1 2 tcp 1040 ------- 1 1.0 3.1 31 53
+ 0.96552 2 3 tcp 1040 ------- 1 1.0 3.1 31 53
- 0.96552 2 3 tcp 1040 ------- 1 1.0 3.1 31 53
r 0.9672 2 3 tcp 1040 ------- 1 1.0 3.1 28 48
+ 0.9672 3 2 ack 40 ------- 1 3.1 1.0 28 78
- 0.9672 3 2 ack 40 ------- 1 3.1 1.0 28 78
r 0.9692 3 2 ack 40 ------- 1 3.1 1.0 27 76
+ 0.9692 2 1 ack 40 ------- 1 3.1 1.0 27 76
- 0.9692 2 1 ack 40 ------- 1 3.1 1.0 27 76
r 0.9712 2 1 ack 40 ------- 1 3.1 1.0 26 74
+ 0.9712 1 2 tcp 1040 ------- 1 1.0 3.1 46 79
- 0.97216 1 2 tcp 1040 ------- 1 1.0 3.1 37 62
r 0.97384 1 2 tcp 1040 ------- 1 1.0 3.1 33 56
+ 0.97384 2 3 tcp 1040 ------- 1 1.0 3.1 33 56
- 0.97384 2 3 tcp 1040 ------- 1 1.0 3.1 33 56
r 0.97552 2 3 tcp 1040 ------- 1 1.0 3.1 29 50
+ 0.97552 3 2 ack 40 ------- 1 3.1 1.0 29 80
- 0.97552 3 2 ack 40 ------- 1 3.1 1.0 29 80
r 0.97752 3 2 ack 40 ------- 1 3.1 1.0 28 78
+ 0.97752 2 1 ack 40 ------- 1 3.1 1.0 28 78
- 0.97752 2 1 ack 40 ------- 1 3.1 1.0 28 78
r 0.97952 2 1 ack 40 ------- 1 3.1 1.0 27 76
+ 0.97952 1 2 tcp 1040 ------- 1 1.0 3.1 47 81
- 0.98048 1 2 tcp 1040 ------- 1 1.0 3.1 39 65
r 0.98216 1 2 tcp 1040 ------- 1 1.0 3.1 35 59
+ 0.98216 2 3 tcp 1040 ------- 1 1.0 3.1 35 59
- 0.98216 2 3 tcp 1040 ------- 1 1.0 3.1 35 59
r 0.98384 2 3 tcp 1040 ------- 1 1.0 3.1 31 53
+ 0.98384 3 2 ack 40 ------- 1 3.1 1.0 29 82
- 0.98384 3 2 ack 40 ------- 1 3.1 1.0 29 82
r 0.98584 3 2 ack 40 ------- 1 3.1 1.0 29 80
+ 0.98584 2 1 ack 40 ------- 1 3.1 1.0 29 80
- 0.98584 2 1 ack 40 ------- 1 3.1 1.0 29 80
r 0.98784 2 1 ack 40 ------- 1 3.1 1.0 28 78
+ 0.98784 1 2 tcp 1040 ------- 1 1.0 3.1 48 83
- 0.9888 1 2 tcp 1040 ------- 1 1.0 3.1 40 67
r 0.99048 1 2 tcp 1040 ------- 1 1.0 3.1 37 62
+ 0.99048 2 3 tcp 1040 ------- 1 1.0 3.1 37 62
- 0.99048 2 3 tcp 1040 ------- 1 1.0 3.1 37 62
r 0.99216 2 3 tcp 1040 ------- 1 1.0 3.1 33 56
+ 0.99216 3 2 ack 40 ------- 1 3.1 1.0 29 84
- 0.99216 3 2 ack 40 ------- 1 3.1 1.0 29 84
r 0.99416 3 2 ack 40 ------- 1 3.1 1.0 29 82
+ 0.99416 2 1 ack 40 ------- 1 3.1 1.0 29 82
- 0.99416 2 1 ack 40 ------- 1 3.1 1.0 29 82
r 0.99616 2 1 ack 40 ------- 1 3.1 1.0 29 80
+ 0.99616 1 2 tcp 1040 ------- 1 1.0 3.1 49 85
- 0.99712 1 2 tcp 1040 ------- 1 1.0 3.1 41 69
r 0.9988 1 2 tcp 1040 ------- 1 1.0 3.1 39 65
+ 0.9988 2 3 tcp 1040 ------- 1 1.0 3.1 39 65
- 0.9988 2 3 tcp 1040 ------- 1 1.0 3.1 39 65
r 1.00048 2 3 tcp 1040 ------- 1 1.0 3.1 35 59
+ 1.00048 3 2 ack 40 ------- 1 3.1 1.0 29 86
- 1.00048 3 2 ack 40 ------- 1 3.1 1.0 29 86
r 1.00248 3 2 ack 40 ------- 1 3.1 1.0 29 84
+ 1.00248 2 1 ack 40 ------- 1 3.1 1.0 29 84
- 1.00248 2 1 ack 40 ------- 1 3.1 1.0 29 84
r 1.00448 2 1 ack 40 ------- 1 3.1 1.0 29 82
- 1.00544 1 2 tcp 1040 ------- 1 1.0 3.1 42 71
r 1.00712 1 2 tcp 1040 ------- 1 1.0 3.1 40 67
+ 1.00712 2 3 tcp 1040 ------- 1 1.0 3.1 40 67
- 1.00712 2 3 tcp 1040 ------- 1 1.0 3.1 40 67
r 1.0088 2 3 tcp 1040 ------- 1 1.0 3.1 37 62
+ 1.0088 3 2 ack 40 ------- 1 3.1 1.0 29 87
- 1.0088 3 2 ack 40 ------- 1 3.1 1.0 29 87
r 1.0108 3 2 ack 40 ------- 1 3.1 1.0 29 86
+ 1.0108 2 1 ack 40 ------- 1 3.1 1.0 29 86
- 1.0108 2 1 ack 40 ------- 1 3.1 1.0 29 86
r 1.0128 2 1 ack 40 ------- 1 3.1 1.0 29 84
- 1.01376 1 2 tcp 1040 ------- 1 1.0 3.1 43 73
r 1.01544 1 2 tcp 1040 ------- 1 1.0 3.1 41 69
+ 1.01544 2 3 tcp 1040 ------- 1 1.0 3.1 41 69
- 1.01544 2 3 tcp 1040 ------- 1 1.0 3.1 41 69
r 1.01712 2 3 tcp 1040 ------- 1 1.0 3.1 39 65
+ 1.01712 3 2 ack 40 ------- 1 3.1 1.0 29 88
- 1.01712 3 2 ack 40 ------- 1 3.1 1.0 29 88
r 1.01912 3 2 ack 40 ------- 1 3.1 1.0 29 87
+ 1.01912 2 1 ack 40 ------- 1 3.1 1.0 29 87
- 1.01912 2 1 ack 40 ------- 1 3.1 1.0 29 87
r 1.02112 2 1 ack 40 ------- 1 3.1 1.0 29 86
+ 1.02112 1 2 tcp 1040 ---A--- 1 1.0 3.1 30 89
- 1.02208 1 2 tcp 1040 ------- 1 1.0 3.1 44 75
r 1.02376 1 2 tcp 1040 ------- 1 1.0 3.1 42 71
+ 1.02376 2 3 tcp 1040 ------- 1 1.0 3.1 42 71
- 1.02376 2 3 tcp 1040 ------- 1 1.0 3.1 42 71
r 1.02544 2 3 tcp 1040 ------- 1 1.0 3.1 40 67
+ 1.02544 3 2 ack 40 ------- 1 3.1 1.0 29 90
- 1.02544 3 2 ack 40 ------- 1 3.1 1.0 29 90
r 1.02744 3 2 ack 40 ------- 1 3.1 1.0 29 88
+ 1.02744 2 1 ack 40 ------- 1 3.1 1.0 29 88
- 1.02744 2 1 ack 40 ------- 1 3.1 1.0 29 88
r 1.02944 2 1 ack 40 ------- 1 3.1 1.0 29 87
- 1.0304 1 2 tcp 1040 ------- 1 1.0 3.1 45 77
r 1.03208 1 2 tcp 1040 ------- 1 1.0 3.1 43 73
+ 1.03208 2 3 tcp 1040 ------- 1 1.0 3.1 43 73
- 1.03208 2 3 tcp 1040 ------- 1 1.0 3.1 43 73
r 1.03376 2 3 tcp 1040 ------- 1 1.0 3.1 41 69
+ 1.03376 3 2 ack 40 ------- 1 3.1 1.0 29 91
- 1.03376 3 2 ack 40 ------- 1 3.1 1.0 29 91
r 1.03576 3 2 ack 40 ------- 1 3.1 1.0 29 90
+ 1.03576 2 1 ack 40 ------- 1 3.1 1.0 29 90
- 1.03576 2 1 ack 40 ------- 1 3.1 1.0 29 90
r 1.03776 2 1 ack 40 ------- 1 3.1 1.0 29 88
- 1.03872 1 2 tcp 1040 ------- 1 1.0 3.1 46 79
r 1.0404 1 2 tcp 1040 ------- 1 1.0 3.1 44 75
+ 1.0404 2 3 tcp 1040 ------- 1 1.0 3.1 44 75
- 1.0404 2 3 tcp 1040 ------- 1 1.0 3.1 44 75
r 1.04208 2 3 tcp 1040 ------- 1 1.0 3.1 42 71
+ 1.04208 3 2 ack 40 ------- 1 3.1 1.0 29 92
- 1.04208 3 2 ack 40 ------- 1 3.1 1.0 29 92
r 1.04408 3 2 ack 40 ------- 1 3.1 1.0 29 91
+ 1.04408 2 1 ack 40 ------- 1 3.1 1.0 29 91
- 1.04408 2 1 ack 40 ------- 1 3.1 1.0 29 91
r 1.04608 2 1 ack 40 ------- 1 3.1 1.0 29 90
- 1.04704 1 2 tcp 1040 ------- 1 1.0 3.1 47 81
r 1.04872 1 2 tcp 1040 ------- 1 1.0 3.1 45 77
+ 1.04872 2 3 tcp 1040 ------- 1 1.0 3.1 45 77
- 1.04872 2 3 tcp 1040 ------- 1 1.0 3.1 45 77
r 1.0504 2 3 tcp 1040 ------- 1 1.0 3.1 43 73
+ 1.0504 3 2 ack 40 ------- 1 3.1 1.0 29 93
- 1.0504 3 2 ack 40 ------- 1 3.1 1.0 29 93
r 1.0524 3 2 ack 40 ------- 1 3.1 1.0 29 92
+ 1.0524 2 1 ack 40 ------- 1 3.1 1.0 29 92
- 1.0524 2 1 ack 40 ------- 1 3.1 1.0 29 92
r 1.0544 2 1 ack 40 ------- 1 3.1 1.0 29 91
- 1.05536 1 2 tcp 1040 ------- 1 1.0 3.1 48 83
r 1.05704 1 2 tcp 1040 ------- 1 1.0 3.1 46 79
+ 1.05704 2 3 tcp 1040 ------- 1 1.0 3.1 46 79
- 1.05704 2 3 tcp 1040 ------- 1 1.0 3.1 46 79
r 1.05872 2 3 tcp 1040 ------- 1 1.0 3.1 44 75
+ 1.05872 3 2 ack 40 ------- 1 3.1 1.0 29 94
- 1.05872 3 2 ack 40 ------- 1 3.1 1.0 29 94
r 1.06072 3 2 ack 40 ------- 1 3.1 1.0 29 93
+ 1.06072 2 1 ack 40 ------- 1 3.1 1.0 29 93
- 1.06072 2 1 ack 40 ------- 1 3.1 1.0 29 93
r 1.06272 2 1 ack 40 ------- 1 3.1 1.0 29 92
- 1.06368 1 2 tcp 1040 ------- 1 1.0 3.1 49 85
r 1.06536 1 2 tcp 1040 ------- 1 1.0 3.1 47 81
+ 1.06536 2 3 tcp 1040 ------- 1 1.0 3.1 47 81
- 1.06536 2 3 tcp 1040 ------- 1 1.0 3.1 47 81
r 1.06704 2 3 tcp 1040 ------- 1 1.0 3.1 45 77
+ 1.06704 3 2 ack 40 ------- 1 3.1 1.0 29 95
- 1.06704 3 2 ack 40 ------- 1 3.1 1.0 29 95
r 1.06904 3 2 ack 40 ------- 1 3.1 1.0 29 94
+ 1.06904 2 1 ack 40 ------- 1 3.1 1.0 29 94
- 1.06904 2 1 ack 40 ------- 1 3.1 1.0 29 94
r 1.07104 2 1 ack 40 ------- 1 3.1 1.0 29 93
- 1.072 1 2 tcp 1040 ---A--- 1 1.0 3.1 30 89
r 1.07368 1 2 tcp 1040 ------- 1 1.0 3.1 48 83
+ 1.07368 2 3 tcp 1040 ------- 1 1.0 3.1 48 83
- 1.07368 2 3 tcp 1040 ------- 1 1.0 3.1 48 83
r 1.07536 2 3 tcp 1040 ------- 1 1.0 3.1 46 79
+ 1.07536 3 2 ack 40 ------- 1 3.1 1.0 29 96
- 1.07536 3 2 ack 40 ------- 1 3.1 1.0 29 96
r 1.07736 3 2 ack 40 ------- 1 3.1 1.0 29 95
+ 1.07736 2 1 ack 40 ------- 1 3.1 1.0 29 95
- 1.07736 2 1 ack 40 ------- 1 3.1 1.0 29 95
r 1.07936 2 1 ack 40 ------- 1 3.1 1.0 29 94
r 1.082 1 2 tcp 1040 ------- 1 1.0 3.1 49 85
+ 1.082 2 3 tcp 1040 ------- 1 1.0 3.1 49 85
- 1.082 2 3 tcp 1040 ------- 1 1.0 3.1 49 85
r 1.08368 2 3 tcp 1040 ------- 1 1.0 3.1 47 81
+ 1.08368 3 2 ack 40 ------- 1 3.1 1.0 29 97
- 1.08368 3 2 ack 40 ------- 1 3.1 1.0 29 97
r 1.08568 3 2 ack 40 ------- 1 3.1 1.0 29 96
+ 1.08568 2 1 ack 40 ------- 1 3.1 1.0 29 96
- 1.08568 2 1 ack 40 ------- 1 3.1 1.0 29 96
r 1.08768 2 1 ack 40 ------- 1 3.1 1.0 29 95
r 1.09032 1 2 tcp 1040 ---A--- 1 1.0 3.1 30 89
+ 1.09032 2 3 tcp 1040 ---A--- 1 1.0 3.1 30 89
- 1.09032 2 3 tcp 1040 ---A--- 1 1.0 3.1 30 89
r 1.092 2 3 tcp 1040 ------- 1 1.0 3.1 48 83
+ 1.092 3 2 ack 40 ------- 1 3.1 1.0 29 98
- 1.092 3 2 ack 40 ------- 1 3.1 1.0 29 98
r 1.094 3 2 ack 40 ------- 1 3.1 1.0 29 97
+ 1.094 2 1 ack 40 ------- 1 3.1 1.0 29 97
- 1.094 2 1 ack 40 ------- 1 3.1 1.0 29 97
r 1.096 2 1 ack 40 ------- 1 3.1 1.0 29 96
r 1.10032 2 3 tcp 1040 ------- 1 1.0 3.1 49 85
+ 1.10032 3 2 ack 40 ------- 1 3.1 1.0 29 99
- 1.10032 3 2 ack 40 ------- 1 3.1 1.0 29 99
r 1.10232 3 2 ack 40 ------- 1 3.1 1.0 29 98
+ 1.10232 2 1 ack 40 ------- 1 3.1 1.0 29 98
- 1.10232 2 1 ack 40 ------- 1 3.1 1.0 29 98
r 1.10432 2 1 ack 40 ------- 1 3.1 1.0 29 97
r 1.10864 2 3 tcp 1040 ---A--- 1 1.0 3.1 30 89
+ 1.10864 3 2 ack 40 ------- 1 3.1 1.0 31 100
- 1.10864 3 2 ack 40 ------- 1 3.1 1.0 31 100
r 1.11064 3 2 ack 40 ------- 1 3.1 1.0 29 99
+ 1.11064 2 1 ack 40 ------- 1 3.1 1.0 29 99
- 1.11064 2 1 ack 40 ------- 1 3.1 1.0 29 99
r 1.11264 2 1 ack 40 ------- 1 3.1 1.0 29 98
r 1.11896 3 2 ack 40 ------- 1 3.1 1.0 31 100
+ 1.11896 2 1 ack 40 ------- 1 3.1 1.0 31 100
- 1.11896 2 1 ack 40 ------- 1 3.1 1.0 31 100
r 1.12096 2 1 ack 40 ------- 1 3.1 1.0 29 99
r 1.12928 2 1 ack 40 ------- 1 3.1 1.0 31 100
+ 1.12928 1 2 tcp 1040 ------- 1 1.0 3.1 32 101
- 1.12928 1 2 tcp 1040 ------- 1 1.0 3.1 32 101
+ 1.12928 1 2 tcp 1040 ------- 1 1.0 3.1 33 102
- 1.1376 1 2 tcp 1040 ------- 1 1.0 3.1 33 102
r 1.1476 1 2 tcp 1040 ------- 1 1.0 3.1 32 101
+ 1.1476 2 3 tcp 1040 ------- 1 1.0 3.1 32 101
- 1.1476 2 3 tcp 1040 ------- 1 1.0 3.1 32 101
r 1.15592 1 2 tcp 1040 ------- 1 1.0 3.1 33 102
+ 1.15592 2 3 tcp 1040 ------- 1 1.0 3.1 33 102
- 1.15592 2 3 tcp 1040 ------- 1 1.0 3.1 33 102
r 1.16592 2 3 tcp 1040 ------- 1 1.0 3.1 32 101
+ 1.16592 3 2 ack 40 ------- 1 3.1 1.0 33 103
- 1.16592 3 2 ack 40 ------- 1 3.1 1.0 33 103
r 1.17424 2 3 tcp 1040 ------- 1 1.0 3.1 33 102
+ 1.17424 3 2 ack 40 ------- 1 3.1 1.0 33 104
- 1.17424 3 2 ack 40 ------- 1 3.1 1.0 33 104
r 1.17624 3 2 ack 40 ------- 1 3.1 1.0 33 103
+ 1.17624 2 1 ack 40 ------- 1 3.1 1.0 33 103
- 1.17624 2 1 ack 40 ------- 1 3.1 1.0 33 103
r 1.18456 3 2 ack 40 ------- 1 3.1 1.0 33 104
+ 1.18456 2 1 ack 40 ------- 1 3.1 1.0 33 104
- 1.18456 2 1 ack 40 ------- 1 3.1 1.0 33 104
r 1.18656 2 1 ack 40 ------- 1 3.1 1.0 33 103
+ 1.18656 1 2 tcp 1040 ------- 1 1.0 3.1 34 105
- 1.18656 1 2 tcp 1040 ------- 1 1.0 3.1 34 105
+ 1.18656 1 2 tcp 1040 ------- 1 1.0 3.1 35 106
+ 1.18656 1 2 tcp 1040 ------- 1 1.0 3.1 36 107
r 1.19488 2 1 ack 40 ------- 1 3.1 1.0 33 104
+ 1.19488 1 2 tcp 1040 ------- 1 1.0 3.1 37 108
- 1.19488 1 2 tcp 1040 ------- 1 1.0 3.1 35 106
- 1.2032 1 2 tcp 1040 ------- 1 1.0 3.1 36 107
r 1.20488 1 2 tcp 1040 ------- 1 1.0 3.1 34 105
+ 1.20488 2 3 tcp 1040 ------- 1 1.0 3.1 34 105
- 1.20488 2 3 tcp 1040 ------- 1 1.0 3.1 34 105
- 1.21152 1 2 tcp 1040 ------- 1 1.0 3.1 37 108
r 1.2132 1 2 tcp 1040 ------- 1 1.0 3.1 35 106
+ 1.2132 2 3 tcp 1040 ------- 1 1.0 3.1 35 106
- 1.2132 2 3 tcp 1040 ------- 1 1.0 3.1 35 106
r 1.22152 1 2 tcp 1040 ------- 1 1.0 3.1 36 107
+ 1.22152 2 3 tcp 1040 ------- 1 1.0 3.1 36 107
- 1.22152 2 3 tcp 1040 ------- 1 1.0 3.1 36 107
r 1.2232 2 3 tcp 1040 ------- 1 1.0 3.1 34 105
+ 1.2232 3 2 ack 40 ------- 1 3.1 1.0 35 109
- 1.2232 3 2 ack 40 ------- 1 3.1 1.0 35 109
r 1.22984 1 2 tcp 1040 ------- 1 1.0 3.1 37 108
+ 1.22984 2 3 tcp 1040 ------- 1 1.0 3.1 37 108
- 1.22984 2 3 tcp 1040 ------- 1 1.0 3.1 37 108
+ 1.231391 0 2 tcp 1040 ---A--- 2 0.0 3.0 2 110
- 1.231391 0 2 tcp 1040 ---A--- 2 0.0 3.0 2 110
r 1.23152 2 3 tcp 1040 ------- 1 1.0 3.1 35 106
+ 1.23152 3 2 ack 40 ------- 1 3.1 1.0 35 111
- 1.23152 3 2 ack 40 ------- 1 3.1 1.0 35 111
r 1.23352 3 2 ack 40 ------- 1 3.1 1.0 35 109
+ 1.23352 2 1 ack 40 ------- 1 3.1 1.0 35 109
- 1.23352 2 1 ack 40 ------- 1 3.1 1.0 35 109
r 1.23984 2 3 tcp 1040 ------- 1 1.0 3.1 36 107
+ 1.23984 3 2 ack 40 ------- 1 3.1 1.0 37 112
- 1.23984 3 2 ack 40 ------- 1 3.1 1.0 37 112
r 1.24184 3 2 ack 40 ------- 1 3.1 1.0 35 111
+ 1.24184 2 1 ack 40 ------- 1 3.1 1.0 35 111
- 1.24184 2 1 ack 40 ------- 1 3.1 1.0 35 111
r 1.24384 2 1 ack 40 ------- 1 3.1 1.0 35 109
+ 1.24384 1 2 tcp 1040 ------- 1 1.0 3.1 38 113
- 1.24384 1 2 tcp 1040 ------- 1 1.0 3.1 38 113
+ 1.24384 1 2 tcp 1040 ------- 1 1.0 3.1 39 114
r 1.24816 2 3 tcp 1040 ------- 1 1.0 3.1 37 108
+ 1.24816 3 2 ack 40 ------- 1 3.1 1.0 37 115
- 1.24816 3 2 ack 40 ------- 1 3.1 1.0 37 115
r 1.249711 0 2 tcp 1040 ---A--- 2 0.0 3.0 2 110
+ 1.249711 2 3 tcp 1040 ---A--- 2 0.0 3.0 2 110
- 1.249711 2 3 tcp 1040 ---A--- 2 0.0 3.0 2 110
r 1.25016 3 2 ack 40 ------- 1 3.1 1.0 37 112