V -t * -v 1.0a5 -a 0
A -t * -n 1 -p 0 -o 0x7fffffff -c 30 -a 1
A -t * -h 1 -m 1073741823 -s 0
c -t * -i 1 -n blue
c -t * -i 2 -n red
n -t * -a 0 -s 0 -S UP -v circle -c black -i black
n -t * -a 1 -s 1 -S UP -v circle -c black -i black
n -t * -a 2 -s 2 -S UP -v circle -c black -i black
n -t * -a 3 -s 3 -S UP -v circle -c black -i black
l -t * -s 0 -d 2 -S UP -r 1000000 -D 0.01 -c black -o down
l -t * -s 2 -d 1 -S UP -r 1000000 -D 0.01 -c black -o right-down
l -t * -s 2 -d 3 -S UP -r 1000000 -D 0.01 -c black -o left-down
+ -t 0.507790344 -s 0 -d 2 -p tcp -e 40 -c 2 -i 0 -a 2 -x {0.0 3.0 0 ------- null}
- -t 0.507790344 -s 0 -d 2 -p tcp -e 40 -c 2 -i 0 -a 2 -x {0.0 3.0 0 ------- null}
h -t 0.507790344 -s 0 -d 2 -p tcp -e 40 -c 2 -i 0 -a 2 -x {0.0 3.0 -1 ------- null}
r -t 0.518110344 -s 0 -d 2 -p tcp -e 40 -c 2 -i 0 -a 2 -x {0.0 3.0 0 ------- null}
+ -t 0.518110344 -s 2 -d 3 -p tcp -e 40 -c 2 -i 0 -a 2 -x {0.0 3.0 0 ------- null}
- -t 0.518110344 -s 2 -d 3 -p tcp -e 40 -c 2 -i 0 -a 2 -x {0.0 3.0 0 ------- null}
h -t 0.518110344 -s 2 -d 3 -p tcp -e 40 -c 2 -i 0 -a 2 -x {0.0 3.0 -1 ------- null}
r -t 0.528430344 -s 2 -d 3 -p tcp -e 40 -c 2 -i 0 -a 2 -x {0.0 3.0 0 ------- null}
+ -t 0.528430344 -s 3 -d 2 -p ack -e 40 -c 2 -i 1 -a 2 -x {3.0 0.0 0 ------- null}
- -t 0.528430344 -s 3 -d 2 -p ack -e 40 -c 2 -i 1 -a 2 -x {3.0 0.0 0 ------- null}
h -t 0.528430344 -s 3 -d 2 -p ack -e 40 -c 2 -i 1 -a 2 -x {3.0 0.0 -1 ------- null}
r -t 0.538750344 -s 3 -d 2 -p ack -e 40 -c 2 -i 1 -a 2 -x {3.0 0.0 0 ------- null}
+ -t 0.538750344 -s 2 -d 0 -p ack -e 40 -c 2 -i 1 -a 2 -x {3.0 0.0 0 ------- null}
- -t 0.538750344 -s 2 -d 0 -p ack -e 40 -c 2 -i 1 -a 2 -x {3.0 0.0 0 ------- null}
h -t 0.538750344 -s 2 -d 0 -p ack -e 40 -c 2 -i 1 -a 2 -x {3.0 0.0 -1 ------- null}
r -t 0.549070344 -s 2 -d 0 -p ack -e 40 -c 2 -i 1 -a 2 -x {3.0 0.0 0 ------- null}
+ -t 0.549070344 -s 0 -d 2 -p tcp -e 1040 -c 2 -i 2 -a 2 -x {0.0 3.0 1 ------- null}
- -t 0.549070344 -s 0 -d 2 -p tcp -e 1040 -c 2 -i 2 -a 2 -x {0.0 3.0 1 ------- null}
h -t 0.549070344 -s 0 -d 2 -p tcp -e 1040 -c 2 -i 2 -a 2 -x {0.0 3.0 -1 ------- null}
r -t 0.567390344 -s 0 -d 2 -p tcp -e 1040 -c 2 -i 2 -a 2 -x {0.0 3.0 1 ------- null}
+ -t 0.567390344 -s 2 -d 3 -p tcp -e 1040 -c 2 -i 2 -a 2 -x {0.0 3.0 1 ------- null}
- -t 0.567390344 -s 2 -d 3 -p tcp -e 1040 -c 2 -i 2 -a 2 -x {0.0 3.0 1 ------- null}
h -t 0.567390344 -s 2 -d 3 -p tcp -e 1040 -c 2 -i 2 -a 2 -x {0.0 3.0 -1 ------- null}
r -t 0.585710344 -s 2 -d 3 -p tcp -e 1040 -c 2 -i 2 -a 2 -x {0.0 3.0 1 ------- null}
+ -t 0.585710344 -s 3 -d 2 -p ack -e 40 -c 2 -i 3 -a 2 -x {3.0 0.0 1 ------- null}
- -t 0.585710344 -s 3 -d 2 -p ack -e 40 -c 2 -i 3 -a 2 -x {3.0 0.0 1 ------- null}
h -t 0.585710344 -s 3 -d 2 -p ack -e 40 -c 2 -i 3 -a 2 -x {3.0 0.0 -1 ------- null}
r -t 0.596030344 -s 3 -d 2 -p ack -e 40 -c 2 -i 3 -a 2 -x {3.0 0.0 1 ------- null}
+ -t 0.596030344 -s 2 -d 0 -p ack -e 40 -c 2 -i 3 -a 2 -x {3.0 0.0 1 ------- null}
- -t 0.596030344 -s 2 -d 0 -p ack -e 40 -c 2 -i 3 -a 2 -x {3.0 0.0 1 ------- null}
h -t 0.596030344 -s 2 -d 0 -p ack -e 40 -c 2 -i 3 -a 2 -x {3.0 0.0 -1 ------- null}
+ -t 0.6 -s 1 -d 2 -p tcp -e 40 -c 1 -i 4 -a 1 -x {1.0 3.1 0 ------- null}
- -t 0.6 -s 1 -d 2 -p tcp -e 40 -c 1 -i 4 -a 1 -x {1.0 3.1 0 ------- null}
h -t 0.6 -s 1 -d 2 -p tcp -e 40 -c 1 -i 4 -a 1 -x {1.0 3.1 -1 ------- null}
r -t 0.606350344 -s 2 -d 0 -p ack -e 40 -c 2 -i 3 -a 2 -x {3.0 0.0 1 ------- null}
r -t 0.61032 -s 1 -d 2 -p tcp -e 40 -c 1 -i 4 -a 1 -x {1.0 3.1 0 ------- null}
+ -t 0.61032 -s 2 -d 3 -p tcp -e 40 -c 1 -i 4 -a 1 -x {1.0 3.1 0 ------- null}
- -t 0.61032 -s 2 -d 3 -p tcp -e 40 -c 1 -i 4 -a 1 -x {1.0 3.1 0 ------- null}
h -t 0.61032 -s 2 -d 3 -p tcp -e 40 -c 1 -i 4 -a 1 -x {1.0 3.1 -1 ------- null}
r -t 0.62064 -s 2 -d 3 -p tcp -e 40 -c 1 -i 4 -a 1 -x {1.0 3.1 0 ------- null}
+ -t 0.62064 -s 3 -d 2 -p ack -e 40 -c 1 -i 5 -a 1 -x {3.1 1.0 0 ------- null}
- -t 0.62064 -s 3 -d 2 -p ack -e 40 -c 1 -i 5 -a 1 -x {3.1 1.0 0 ------- null}
h -t 0.62064 -s 3 -d 2 -p ack -e 40 -c 1 -i 5 -a 1 -x {3.1 1.0 -1 ------- null}
r -t 0.63096 -s 3 -d 2 -p ack -e 40 -c 1 -i 5 -a 1 -x {3.1 1.0 0 ------- null}
+ -t 0.63096 -s 2 -d 1 -p ack -e 40 -c 1 -i 5 -a 1 -x {3.1 1.0 0 ------- null}
- -t 0.63096 -s 2 -d 1 -p ack -e 40 -c 1 -i 5 -a 1 -x {3.1 1.0 0 ------- null}
h -t 0.63096 -s 2 -d 1 -p ack -e 40 -c 1 -i 5 -a 1 -x {3.1 1.0 -1 ------- null}
r -t 0.64128 -s 2 -d 1 -p ack -e 40 -c 1 -i 5 -a 1 -x {3.1 1.0 0 ------- null}
+ -t 0.64128 -s 1 -d 2 -p tcp -e 1040 -c 1 -i 6 -a 1 -x {1.0 3.1 1 ------- null}
- -t 0.64128 -s 1 -d 2 -p tcp -e 1040 -c 1 -i 6 -a 1 -x {1.0 3.1 1 ------- null}
h -t 0.64128 -s 1 -d 2 -p tcp -e 1040 -c 1 -i 6 -a 1 -x {1.0 3.1 -1 ------- null}
+ -t 0.64128 -s 1 -d 2 -p tcp -e 1040 -c 1 -i 7 -a 1 -x {1.0 3.1 2 ------- null}
- -t 0.6496 -s 1 -d 2 -p tcp -e 1040 -c 1 -i 7 -a 1 -x {1.0 3.1 2 ------- null}
h -t 0.6496 -s 1 -d 2 -p tcp -e 1040 -c 1 -i 7 -a 1 -x {1.0 3.1 -1 ------- null}
r -t 0.6596 -s 1 -d 2 -p tcp -e 1040 -c 1 -i 6 -a 1 -x {1.0 3.1 1 ------- null}
+ -t 0.6596 -s 2 -d 3 -p tcp -e 1040 -c 1 -i 6 -a 1 -x {1.0 3.1 1 ------- null}
- -t 0.6596 -s 2 -d 3 -p tcp -e 1040 -c 1 -i 6 -a 1 -x {1.0 3.1 1 ------- null}
h -t 0.6596 -s 2 -d 3 -p tcp -e 1040 -c 1 -i 6 -a 1 -x {1.0 3.1 -1 ------- null}
r -t 0.66792 -s 1 -d 2 -p tcp -e 1040 -c 1 -i 7 -a 1 -x {1.0 3.1 2 ------- null}
+ -t 0.66792 -s 2 -d 3 -p tcp -e 1040 -c 1 -i 7 -a 1 -x {1.0 3.1 2 ------- null}
- -t 0.66792 -s 2 -d 3 -p tcp -e 1040 -c 1 -i 7 -a 1 -x {1.0 3.1 2 ------- null}
h -t 0.66792 -s 2 -d 3 -p tcp -e 1040 -c 1 -i 7 -a 1 -x {1.0 3.1 -1 ------- null}
r -t 0.67792 -s 2 -d 3 -p tcp -e 1040 -c 1 -i 6 -a 1 -x {1.0 3.1 1 ------- null}
+ -t 0.67792 -s 3 -d 2 -p ack -e 40 -c 1 -i 8 -a 1 -x {3.1 1.0 1 ------- null}
- -t 0.67792 -s 3 -d 2 -p ack -e 40 -c 1 -i 8 -a 1 -x {3.1 1.0 1 ------- null}
h -t 0.67792 -s 3 -d 2 -p ack -e 40 -c 1 -i 8 -a 1 -x {3.1 1.0 -1 ------- null}
r -t 0.68624 -s 2 -d 3 -p tcp -e 1040 -c 1 -i 7 -a 1 -x {1.0 3.1 2 ------- null}
+ -t 0.68624 -s 3 -d 2 -p ack -e 40 -c 1 -i 9 -a 1 -x {3.1 1.0 2 ------- null}
- -t 0.68624 -s 3 -d 2 -p ack -e 40 -c 1 -i 9 -a 1 -x {3.1 1.0 2 ------- null}
h -t 0.68624 -s 3 -d 2 -p ack -e 40 -c 1 -i 9 -a 1 -x {3.1 1.0 -1 ------- null}
r -t 0.68824 -s 3 -d 2 -p ack -e 40 -c 1 -i 8 -a 1 -x {3.1 1.0 1 ------- null}
+ -t 0.68824 -s 2 -d 1 -p ack -e 40 -c 1 -i 8 -a 1 -x {3.1 1.0 1 ------- null}
- -t 0.68824 -s 2 -d 1 -p ack -e 40 -c 1 -i 8 -a 1 -x {3.1 1.0 1 ------- null}
h -t 0.68824 -s 2 -d 1 -p ack -e 40 -c 1 -i 8 -a 1 -x {3.1 1.0 -1 ------- null}
r -t 0.69656 -s 3 -d 2 -p ack -e 40 -c 1 -i 9 -a 1 -x {3.1 1.0 2 ------- null}
+ -t 0.69656 -s 2 -d 1 -p ack -e 40 -c 1 -i 9 -a 1 -x {3.1 1.0 2 ------- null}
- -t 0.69656 -s 2 -d 1 -p ack -e 40 -c 1 -i 9 -a 1 -x {3.1 1.0 2 ------- null}
h -t 0.69656 -s 2 -d 1 -p ack -e 40 -c 1 -i 9 -a 1 -x {3.1 1.0 -1 ------- null}
r -t 0.69856 -s 2 -d 1 -p ack -e 40 -c 1 -i 8 -a 1 -x {3.1 1.0 1 ------- null}
+ -t 0.69856 -s 1 -d 2 -p tcp -e 1040 -c 1 -i 10 -a 1 -x {1.0 3.1 3 ------- null}
- -t 0.69856 -s 1 -d 2 -p tcp -e 1040 -c 1 -i 10 -a 1 -x {1.0 3.1 3 ------- null}
h -t 0.69856 -s 1 -d 2 -p tcp -e 1040 -c 1 -i 10 -a 1 -x {1.0 3.1 -1 ------- null}
+ -t 0.69856 -s 1 -d 2 -p tcp -e 1040 -c 1 -i 11 -a 1 -x {1.0 3.1 4 ------- null}
r -t 0.70688 -s 2 -d 1 -p ack -e 40 -c 1 -i 9 -a 1 -x {3.1 1.0 2 ------- null}
+ -t 0.70688 -s 1 -d 2 -p tcp -e 1040 -c 1 -i 12 -a 1 -x {1.0 3.1 5 ------- null}
+ -t 0.70688 -s 1 -d 2 -p tcp -e 1040 -c 1 -i 13 -a 1 -x {1.0 3.1 6 ------- null}
- -t 0.70688 -s 1 -d 2 -p tcp -e 1040 -c 1 -i 11 -a 1 -x {1.0 3.1 4 ------- null}
h -t 0.70688 -s 1 -d 2 -p tcp -e 1040 -c 1 -i 11 -a 1 -x {1.0 3.1 -1 ------- null}
- -t 0.7152 -s 1 -d 2 -p tcp -e 1040 -c 1 -i 12 -a 1 -x {1.0 3.1 5 ------- null}
h -t 0.7152 -s 1 -d 2 -p tcp -e 1040 -c 1 -i 12 -a 1 -x {1.0 3.1 -1 ------- null}
r -t 0.71688 -s 1 -d 2 -p tcp -e 1040 -c 1 -i 10 -a 1 -x {1.0 3.1 3 ------- null}
+ -t 0.71688 -s 2 -d 3 -p tcp -e 1040 -c 1 -i 10 -a 1 -x {1.0 3.1 3 ------- null}
- -t 0.71688 -s 2 -d 3 -p tcp -e 1040 -c 1 -i 10 -a 1 -x {1.0 3.1 3 ------- null}
h -t 0.71688 -s 2 -d 3 -p tcp -e 1040 -c 1 -i 10 -a 1 -x {1.0 3.1 -1 ------- null}
- -t 0.72352 -s 1 -d 2 -p tcp -e 1040 -c 1 -i 13 -a 1 -x {1.0 3.1 6 ------- null}
h -t 0.72352 -s 1 -d 2 -p tcp -e 1040 -c 1 -i 13 -a 1 -x {1.0 3.1 -1 ------- null}
r -t 0.7252 -s 1 -d 2 -p tcp -e 1040 -c 1 -i 11 -a 1 -x {1.0 3.1 4 ------- null}
+ -t 0.7252 -s 2 -d 3 -p tcp -e 1040 -c 1 -i 11 -a 1 -x {1.0 3.1 4 ------- null}
- -t 0.7252 -s 2 -d 3 -p tcp -e 1040 -c 1 -i 11 -a 1 -x {1.0 3.1 4 ------- null}
h -t 0.7252 -s 2 -d 3 -p tcp -e 1040 -c 1 -i 11 -a 1 -x {1.0 3.1 -1 ------- null}
r -t 0.73352 -s 1 -d 2 -p tcp -e 1040 -c 1 -i 12 -a 1 -x {1.0 3.1 5 ------- null}
+ -t 0.73352 -s 2 -d 3 -p tcp -e 1040 -c 1 -i 12 -a 1 -x {1.0 3.1 5 ------- null}
- -t 0.73352 -s 2 -d 3 -p tcp -e 1040 -c 1 -i 12 -a 1 -x {1.0 3.1 5 ------- null}
h -t 0.73352 -s 2 -d 3 -p tcp -e 1040 -c 1 -i 12 -a 1 -x {1.0 3.1 -1 ------- null}
r -t 0.7352 -s 2 -d 3 -p tcp -e 1040 -c 1 -i 10 -a 1 -x {1.0 3.1 3 ------- null}
+ -t 0.7352 -s 3 -d 2 -p ack -e 40 -c 1 -i 14 -a 1 -x {3.1 1.0 3 ------- null}
- -t 0.7352 -s 3 -d 2 -p ack -e 40 -c 1 -i 14 -a 1 -x {3.1 1.0 3 ------- null}
h -t 0.7352 -s 3 -d 2 -p ack -e 40 -c 1 -i 14 -a 1 -x {3.1 1.0 -1 ------- null}
r -t 0.74184 -s 1 -d 2 -p tcp -e 1040 -c 1 -i 13 -a 1 -x {1.0 3.1 6 ------- null}
+ -t 0.74184 -s 2 -d 3 -p tcp -e 1040 -c 1 -i 13 -a 1 -x {1.0 3.1 6 ------- null}
- -t 0.74184 -s 2 -d 3 -p tcp -e 1040 -c 1 -i 13 -a 1 -x {1.0 3.1 6 ------- null}
h -t 0.74184 -s 2 -d 3 -p tcp -e 1040 -c 1 -i 13 -a 1 -x {1.0 3.1 -1 ------- null}
r -t 0.74352 -s 2 -d 3 -p tcp -e 1040 -c 1 -i 11 -a 1 -x {1.0 3.1 4 ------- null}
+ -t 0.74352 -s 3 -d 2 -p ack -e 40 -c 1 -i 15 -a 1 -x {3.1 1.0 4 ------- null}
- -t 0.74352 -s 3 -d 2 -p ack -e 40 -c 1 -i 15 -a 1 -x {3.1 1.0 4 ------- null}
h -t 0.74352 -s 3 -d 2 -p ack -e 40 -c 1 -i 15 -a 1 -x {3.1 1.0 -1 ------- null}
r -t 0.74552 -s 3 -d 2 -p ack -e 40 -c 1 -i 14 -a 1 -x {3.1 1.0 3 ------- null}
+ -t 0.74552 -s 2 -d 1 -p ack -e 40 -c 1 -i 14 -a 1 -x {3.1 1.0 3 ------- null}
- -t 0.74552 -s 2 -d 1 -p ack -e 40 -c 1 -i 14 -a 1 -x {3.1 1.0 3 ------- null}
h -t 0.74552 -s 2 -d 1 -p ack -e 40 -c 1 -i 14 -a 1 -x {3.1 1.0 -1 ------- null}
r -t 0.75184 -s 2 -d 3 -p tcp -e 1040 -c 1 -i 12 -a 1 -x {1.0 3.1 5 ------- null}
+ -t 0.75184 -s 3 -d 2 -p ack -e 40 -c 1 -i 16 -a 1 -x {3.1 1.0 5 ------- null}
- -t 0.75184 -s 3 -d 2 -p ack -e 40 -c 1 -i 16 -a 1 -x {3.1 1.0 5 ------- null}
h -t 0.75184 -s 3 -d 2 -p ack -e 40 -c 1 -i 16 -a 1 -x {3.1 1.0 -1 ------- null}
r -t 0.75384 -s 3 -d 2 -p ack -e 40 -c 1 -i 15 -a 1 -x {3.1 1.0 4 ------- null}
+ -t 0.75384 -s 2 -d 1 -p ack -e 40 -c 1 -i 15 -a 1 -x {3.1 1.0 4 ------- null}
- -t 0.75384 -s 2 -d 1 -p ack -e 40 -c 1 -i 15 -a 1 -x {3.1 1.0 4 ------- null}
h -t 0.75384 -s 2 -d 1 -p ack -e 40 -c 1 -i 15 -a 1 -x {3.1 1.0 -1 ------- null}
r -t 0.75584 -s 2 -d 1 -p ack -e 40 -c 1 -i 14 -a 1 -x {3.1 1.0 3 ------- null}
+ -t 0.75584 -s 1 -d 2 -p tcp -e 1040 -c 1 -i 17 -a 1 -x {1.0 3.1 7 ------- null}
- -t 0.75584 -s 1 -d 2 -p tcp -e 1040 -c 1 -i 17 -a 1 -x {1.0 3.1 7 ------- null}
h -t 0.75584 -s 1 -d 2 -p tcp -e 1040 -c 1 -i 17 -a 1 -x {1.0 3.1 -1 ------- null}
+ -t 0.75584 -s 1 -d 2 -p tcp -e 1040 -c 1 -i 18 -a 1 -x {1.0 3.1 8 ------- null}
r -t 0.76016 -s 2 -d 3 -p tcp -e 1040 -c 1 -i 13 -a 1 -x {1.0 3.1 6 ------- null}
+ -t 0.76016 -s 3 -d 2 -p ack -e 40 -c 1 -i 19 -a 1 -x {3.1 1.0 6 ------- null}
- -t 0.76016 -s 3 -d 2 -p ack -e 40 -c 1 -i 19 -a 1 -x {3.1 1.0 6 ------- null}
h -t 0.76016 -s 3 -d 2 -p ack -e 40 -c 1 -i 19 -a 1 -x {3.1 1.0 -1 ------- null}
r -t 0.76216 -s 3 -d 2 -p ack -e 40 -c 1 -i 16 -a 1 -x {3.1 1.0 5 ------- null}
+ -t 0.76216 -s 2 -d 1 -p ack -e 40 -c 1 -i 16 -a 1 -x {3.1 1.0 5 ------- null}
- -t 0.76216 -s 2 -d 1 -p ack -e 40 -c 1 -i 16 -a 1 -x {3.1 1.0 5 ------- null}
h -t 0.76216 -s 2 -d 1 -p ack -e 40 -c 1 -i 16 -a 1 -x {3.1 1.0 -1 ------- null}
r -t 0.76416 -s 2 -d 1 -p ack -e 40 -c 1 -i 15 -a 1 -x {3.1 1.0 4 ------- null}
+ -t 0.76416 -s 1 -d 2 -p tcp -e 1040 -c 1 -i 20 -a 1 -x {1.0 3.1 9 ------- null}
+ -t 0.76416 -s 1 -d 2 -p tcp -e 1040 -c 1 -i 21 -a 1 -x {1.0 3.1 10 ------- null}
- -t 0.76416 -s 1 -d 2 -p tcp -e 1040 -c 1 -i 18 -a 1 -x {1.0 3.1 8 ------- null}
h -t 0.76416 -s 1 -d 2 -p tcp -e 1040 -c 1 -i 18 -a 1 -x {1.0 3.1 -1 ------- null}
r -t 0.77048 -s 3 -d 2 -p ack -e 40 -c 1 -i 19 -a 1 -x {3.1 1.0 6 ------- null}
+ -t 0.77048 -s 2 -d 1 -p ack -e 40 -c 1 -i 19 -a 1 -x {3.1 1.0 6 ------- null}
- -t 0.77048 -s 2 -d 1 -p ack -e 40 -c 1 -i 19 -a 1 -x {3.1 1.0 6 ------- null}
h -t 0.77048 -s 2 -d 1 -p ack -e 40 -c 1 -i 19 -a 1 -x {3.1 1.0 -1 ------- null}
r -t 0.77248 -s 2 -d 1 -p ack -e 40 -c 1 -i 16 -a 1 -x {3.1 1.0 5 ------- null}
+ -t 0.77248 -s 1 -d 2 -p tcp -e 1040 -c 1 -i 22 -a 1 -x {1.0 3.1 11 ------- null}
+ -t 0.77248 -s 1 -d 2 -p tcp -e 1040 -c 1 -i 23 -a 1 -x {1.0 3.1 12 ------- null}
- -t 0.77248 -s 1 -d 2 -p tcp -e 1040 -c 1 -i 20 -a 1 -x {1.0 3.1 9 ------- null}
h -t 0.77248 -s 1 -d 2 -p tcp -e 1040 -c 1 -i 20 -a 1 -x {1.0 3.1 -1 ------- null}
r -t 0.77416 -s 1 -d 2 -p tcp -e 1040 -c 1 -i 17 -a 1 -x {1.0 3.1 7 ------- null}
+ -t 0.77416 -s 2 -d 3 -p tcp -e 1040 -c 1 -i 17 -a 1 -x {1.0 3.1 7 ------- null}
- -t 0.77416 -s 2 -d 3 -p tcp -e 1040 -c 1 -i 17 -a 1 -x {1.0 3.1 7 ------- null}
h -t 0.77416 -s 2 -d 3 -p tcp -e 1040 -c 1 -i 17 -a 1 -x {1.0 3.1 -1 ------- null}
r -t 0.7808 -s 2 -d 1 -p ack -e 40 -c 1 -i 19 -a 1 -x {3.1 1.0 6 ------- null}
+ -t 0.7808 -s 1 -d 2 -p tcp -e 1040 -c 1 -i 24 -a 1 -x {1.0 3.1 13 ------- null}
+ -t 0.7808 -s 1 -d 2 -p tcp -e 1040 -c 1 -i 25 -a 1 -x {1.0 3.1 14 ------- null}
- -t 0.7808 -s 1 -d 2 -p tcp -e 1040 -c 1 -i 21 -a 1 -x {1.0 3.1 10 ------- null}
h -t 0.7808 -s 1 -d 2 -p tcp -e 1040 -c 1 -i 21 -a 1 -x {1.0 3.1 -1 ------- null}
r -t 0.78248 -s 1 -d 2 -p tcp -e 1040 -c 1 -i 18 -a 1 -x {1.0 3.1 8 ------- null}
+ -t 0.78248 -s 2 -d 3 -p tcp -e 1040 -c 1 -i 18 -a 1 -x {1.0 3.1 8 ------- null}
- -t 0.78248 -s 2 -d 3 -p tcp -e 1040 -c 1 -i 18 -a 1 -x {1.0 3.1 8 ------- null}
h -t 0.78248 -s 2 -d 3 -p tcp -e 1040 -c 1 -i 18 -a 1 -x {1.0 3.1 -1 ------- null}
- -t 0.78912 -s 1 -d 2 -p tcp -e 1040 -c 1 -i 22 -a 1 -x {1.0 3.1 11 ------- null}
h -t 0.78912 -s 1 -d 2 -p tcp -e 1040 -c 1 -i 22 -a 1 -x {1.0 3.1 -1 ------- null}
r -t 0.7908 -s 1 -d 2 -p tcp -e 1040 -c 1 -i 20 -a 1 -x {1.0 3.1 9 ------- null}
+ -t 0.7908 -s 2 -d 3 -p tcp -e 1040 -c 1 -i 20 -a 1 -x {1.0 3.1 9 ------- null}
- -t 0.7908 -s 2 -d 3 -p tcp -e 1040 -c 1 -i 20 -a 1 -x {1.0 3.1 9 ------- null}
h -t 0.7908 -s 2 -d 3 -p tcp -e 1040 -c 1 -i 20 -a 1 -x {1.0 3.1 -1 ------- null}
r -t 0.79248 -s 2 -d 3 -p tcp -e 1040 -c 1 -i 17 -a 1 -x {1.0 3.1 7 ------- null}
+ -t 0.79248 -s 3 -d 2 -p ack -e 40 -c 1 -i 26 -a 1 -x {3.1 1.0 7 ------- null}
- -t 0.79248 -s 3 -d 2 -p ack -e 40 -c 1 -i 26 -a 1 -x {3.1 1.0 7 ------- null}
h -t 0.79248 -s 3 -d 2 -p ack -e 40 -c 1 -i 26 -a 1 -x {3.1 1.0 -1 ------- null}
- -t 0.79744 -s 1 -d 2 -p tcp -e 1040 -c 1 -i 23 -a 1 -x {1.0 3.1 12 ------- null}
h -t 0.79744 -s 1 -d 2 -p tcp -e 1040 -c 1 -i 23 -a 1 -x {1.0 3.1 -1 ------- null}
r -t 0.79912 -s 1 -d 2 -p tcp -e 1040 -c 1 -i 21 -a 1 -x {1.0 3.1 10 ------- null}
+ -t 0.79912 -s 2 -d 3 -p tcp -e 1040 -c 1 -i 21 -a 1 -x {1.0 3.1 10 ------- null}
- -t 0.79912 -s 2 -d 3 -p tcp -e 1040 -c 1 -i 21 -a 1 -x {1.0 3.1 10 ------- null}
h -t 0.79912 -s 2 -d 3 -p tcp -e 1040 -c 1 -i 21 -a 1 -x {1.0 3.1 -1 ------- null}
r -t 0.8008 -s 2 -d 3 -p tcp -e 1040 -c 1 -i 18 -a 1 -x {1.0 3.1 8 ------- null}
+ -t 0.8008 -s 3 -d 2 -p ack -e 40 -c 1 -i 27 -a 1 -x {3.1 1.0 8 ------- null}
- -t 0.8008 -s 3 -d 2 -p ack -e 40 -c 1 -i 27 -a 1 -x {3.1 1.0 8 ------- null}
h -t 0.8008 -s 3 -d 2 -p ack -e 40 -c 1 -i 27 -a 1 -x {3.1 1.0 -1 ------- null}
r -t 0.8028 -s 3 -d 2 -p ack -e 40 -c 1 -i 26 -a 1 -x {3.1 1.0 7 ------- null}
+ -t 0.8028 -s 2 -d 1 -p ack -e 40 -c 1 -i 26 -a 1 -x {3.1 1.0 7 ------- null}
- -t 0.8028 -s 2 -d 1 -p ack -e 40 -c 1 -i 26 -a 1 -x {3.1 1.0 7 ------- null}
h -t 0.8028 -s 2 -d 1 -p ack -e 40 -c 1 -i 26 -a 1 -x {3.1 1.0 -1 ------- null}
- -t 0.80576 -s 1 -d 2 -p tcp -e 1040 -c 1 -i 24 -a 1 -x {1.0 3.1 13 ------- null}
h -t 0.80576 -s 1 -d 2 -p tcp -e 1040 -c 1 -i 24 -a 1 -x {1.0 3.1 -1 ------- null}
r -t 0.80744 -s 1 -d 2 -p tcp -e 1040 -c 1 -i 22 -a 1 -x {1.0 3.1 11 ------- null}
+ -t 0.80744 -s 2 -d 3 -p tcp -e 1040 -c 1 -i 22 -a 1 -x {1.0 3.1 11 ------- null}
- -t 0.80744 -s 2 -d 3 -p tcp -e 1040 -c 1 -i 22 -a 1 -x {1.0 3.1 11 ------- null}
h -t 0.80744 -s 2 -d 3 -p tcp -e 1040 -c 1 -i 22 -a 1 -x {1.0 3.1 -1 ------- null}
r -t 0.80912 -s 2 -d 3 -p tcp -e 1040 -c 1 -i 20 -a 1 -x {1.0 3.1 9 ------- null}
+ -t 0.80912 -s 3 -d 2 -p ack -e 40 -c 1 -i 28 -a 1 -x {3.1 1.0 9 ------- null}
- -t 0.80912 -s 3 -d 2 -p ack -e 40 -c 1 -i 28 -a 1 -x {3.1 1.0 9 ------- null}
h -t 0.80912 -s 3 -d 2 -p ack -e 40 -c 1 -i 28 -a 1 -x {3.1 1.0 -1 ------- null}
r -t 0.81112 -s 3 -d 2 -p ack -e 40 -c 1 -i 27 -a 1 -x {3.1 1.0 8 ------- null}
+ -t 0.81112 -s 2 -d 1 -p ack -e 40 -c 1 -i 27 -a 1 -x {3.1 1.0 8 ------- null}
- -t 0.81112 -s 2 -d 1 -p ack -e 40 -c 1 -i 27 -a 1 -x {3.1 1.0 8 ------- null}
h -t 0.81112 -s 2 -d 1 -p ack -e 40 -c 1 -i 27 -a 1 -x {3.1 1.0 -1 ------- null}
r -t 0.81312 -s 2 -d 1 -p ack -e 40 -c 1 -i 26 -a 1 -x {3.1 1.0 7 ------- null}
+ -t 0.81312 -s 1 -d 2 -p tcp -e 1040 -c 1 -i 29 -a 1 -x {1.0 3.1 15 ------- null}
+ -t 0.81312 -s 1 -d 2 -p tcp -e 1040 -c 1 -i 30 -a 1 -x {1.0 3.1 16 ------- null}
- -t 0.81408 -s 1 -d 2 -p tcp -e 1040 -c 1 -i 25 -a 1 -x {1.0 3.1 14 ------- null}
h -t 0.81408 -s 1 -d 2 -p tcp -e 1040 -c 1 -i 25 -a 1 -x {1.0 3.1 -1 ------- null}
r -t 0.81576 -s 1 -d 2 -p tcp -e 1040 -c 1 -i 23 -a 1 -x {1.0 3.1 12 ------- null}
+ -t 0.81576 -s 2 -d 3 -p tcp -e 1040 -c 1 -i 23 -a 1 -x {1.0 3.1 12 ------- null}
- -t 0.81576 -s 2 -d 3 -p tcp -e 1040 -c 1 -i 23 -a 1 -x {1.0 3.1 12 ------- null}
h -t 0.81576 -s 2 -d 3 -p tcp -e 1040 -c 1 -i 23 -a 1 -x {1.0 3.1 -1 ------- null}
r -t 0.81744 -s 2 -d 3 -p tcp -e 1040 -c 1 -i 21 -a 1 -x {1.0 3.1 10 ------- null}
+ -t 0.81744 -s 3 -d 2 -p ack -e 40 -c 1 -i 31 -a 1 -x {3.1 1.0 10 ------- null}
- -t 0.81744 -s 3 -d 2 -p ack -e 40 -c 1 -i 31 -a 1 -x {3.1 1.0 10 ------- null}
h -t 0.81744 -s 3 -d 2 -p ack -e 40 -c 1 -i 31 -a 1 -x {3.1 1.0 -1 ------- null}
r -t 0.81944 -s 3 -d 2 -p ack -e 40 -c 1 -i 28 -a 1 -x {3.1 1.0 9 ------- null}
+ -t 0.81944 -s 2 -d 1 -p ack -e 40 -c 1 -i 28 -a 1 -x {3.1 1.0 9 ------- null}
- -t 0.81944 -s 2 -d 1 -p ack -e 40 -c 1 -i 28 -a 1 -x {3.1 1.0 9 ------- null}
h -t 0.81944 -s 2 -d 1 -p ack -e 40 -c 1 -i 28 -a 1 -x {3.1 1.0 -1 ------- null}
r -t 0.82144 -s 2 -d 1 -p ack -e 40 -c 1 -i 27 -a 1 -x {3.1 1.0 8 ------- null}
+ -t 0.82144 -s 1 -d 2 -p tcp -e 1040 -c 1 -i 32 -a 1 -x {1.0 3.1 17 ------- null}
+ -t 0.82144 -s 1 -d 2 -p tcp -e 1040 -c 1 -i 33 -a 1 -x {1.0 3.1 18 ------- null}
- -t 0.8224 -s 1 -d 2 -p tcp -e 1040 -c 1 -i 29 -a 1 -x {1.0 3.1 15 ------- null}
h -t 0.8224 -s 1 -d 2 -p tcp -e 1040 -c 1 -i 29 -a 1 -x {1.0 3.1 -1 ------- null}
r -t 0.82408 -s 1 -d 2 -p tcp -e 1040 -c 1 -i 24 -a 1 -x {1.0 3.1 13 ------- null}
+ -t 0.82408 -s 2 -d 3 -p tcp -e 1040 -c 1 -i 24 -a 1 -x {1.0 3.1 13 ------- null}
- -t 0.82408 -s 2 -d 3 -p tcp -e 1040 -c 1 -i 24 -a 1 -x {1.0 3.1 13 ------- null}
h -t 0.82408 -s 2 -d 3 -p tcp -e 1040 -c 1 -i 24 -a 1 -x {1.0 3.1 -1 ------- null}
r -t 0.82576 -s 2 -d 3 -p tcp -e 1040 -c 1 -i 22 -a 1 -x {1.0 3.1 11 ------- null}
+ -t 0.82576 -s 3 -d 2 -p ack -e 40 -c 1 -i 34 -a 1 -x {3.1 1.0 11 ------- null}
- -t 0.82576 -s 3 -d 2 -p ack -e 40 -c 1 -i 34 -a 1 -x {3.1 1.0 11 ------- null}
h -t 0.82576 -s 3 -d 2 -p ack -e 40 -c 1 -i 34 -a 1 -x {3.1 1.0 -1 ------- null}
r -t 0.82776 -s 3 -d 2 -p ack -e 40 -c 1 -i 31 -a 1 -x {3.1 1.0 10 ------- null}
+ -t 0.82776 -s 2 -d 1 -p ack -e 40 -c 1 -i 31 -a 1 -x {3.1 1.0 10 ------- null}
- -t 0.82776 -s 2 -d 1 -p ack -e 40 -c 1 -i 31 -a 1 -x {3.1 1.0 10 ------- null}
h -t 0.82776 -s 2 -d 1 -p ack -e 40 -c 1 -i 31 -a 1 -x {3.1 1.0 -1 ------- null}
r -t 0.82976 -s 2 -d 1 -p ack -e 40 -c 1 -i 28 -a 1 -x {3.1 1.0 9 ------- null}
+ -t 0.82976 -s 1 -d 2 -p tcp -e 1040 -c 1 -i 35 -a 1 -x {1.0 3.1 19 ------- null}
+ -t 0.82976 -s 1 -d 2 -p tcp -e 1040 -c 1 -i 36 -a 1 -x {1.0 3.1 20 ------- null}
- -t 0.83072 -s 1 -d 2 -p tcp -e 1040 -c 1 -i 30 -a 1 -x {1.0 3.1 16 ------- null}
h -t 0.83072 -s 1 -d 2 -p tcp -e 1040 -c 1 -i 30 -a 1 -x {1.0 3.1 -1 ------- null}
r -t 0.8324 -s 1 -d 2 -p tcp -e 1040 -c 1 -i 25 -a 1 -x {1.0 3.1 14 ------- null}
+ -t 0.8324 -s 2 -d 3 -p tcp -e 1040 -c 1 -i 25 -a 1 -x {1.0 3.1 14 ------- null}
- -t 0.8324 -s 2 -d 3 -p tcp -e 1040 -c 1 -i 25 -a 1 -x {1.0 3.1 14 ------- null}
h -t 0.8324 -s 2 -d 3 -p tcp -e 1040 -c 1 -i 25 -a 1 -x {1.0 3.1 -1 ------- null}
r -t 0.83408 -s 2 -d 3 -p tcp -e 1040 -c 1 -i 23 -a 1 -x {1.0 3.1 12 ------- null}
+ -t 0.83408 -s 3 -d 2 -p ack -e 40 -c 1 -i 37 -a 1 -x {3.1 1.0 12 ------- null}
- -t 0.83408 -s 3 -d 2 -p ack -e 40 -c 1 -i 37 -a 1 -x {3.1 1.0 12 ------- null}
h -t 0.83408 -s 3 -d 2 -p ack -e 40 -c 1 -i 37 -a 1 -x {3.1 1.0 -1 ------- null}
r -t 0.83608 -s 3 -d 2 -p ack -e 40 -c 1 -i 34 -a 1 -x {3.1 1.0 11 ------- null}
+ -t 0.83608 -s 2 -d 1 -p ack -e 40 -c 1 -i 34 -a 1 -x {3.1 1.0 11 ------- null}
- -t 0.83608 -s 2 -d 1 -p ack -e 40 -c 1 -i 34 -a 1 -x {3.1 1.0 11 ------- null}
h -t 0.83608 -s 2 -d 1 -p ack -e 40 -c 1 -i 34 -a 1 -x {3.1 1.0 -1 ------- null}
r -t 0.83808 -s 2 -d 1 -p ack -e 40 -c 1 -i 31 -a 1 -x {3.1 1.0 10 ------- null}
+ -t 0.83808 -s 1 -d 2 -p tcp -e 1040 -c 1 -i 38 -a 1 -x {1.0 3.1 21 ------- null}
+ -t 0.83808 -s 1 -d 2 -p tcp -e 1040 -c 1 -i 39 -a 1 -x {1.0 3.1 22 ------- null}
- -t 0.83904 -s 1 -d 2 -p tcp -e 1040 -c 1 -i 32 -a 1 -x {1.0 3.1 17 ------- null}
h -t 0.83904 -s 1 -d 2 -p tcp -e 1040 -c 1 -i 32 -a 1 -x {1.0 3.1 -1 ------- null}
r -t 0.84072 -s 1 -d 2 -p tcp -e 1040 -c 1 -i 29 -a 1 -x {1.0 3.1 15 ------- null}
+ -t 0.84072 -s 2 -d 3 -p tcp -e 1040 -c 1 -i 29 -a 1 -x {1.0 3.1 15 ------- null}
- -t 0.84072 -s 2 -d 3 -p tcp -e 1040 -c 1 -i 29 -a 1 -x {1.0 3.1 15 ------- null}
h -t 0.84072 -s 2 -d 3 -p tcp -e 1040 -c 1 -i 29 -a 1 -x {1.0 3.1 -1 ------- null}
r -t 0.8424 -s 2 -d 3 -p tcp -e 1040 -c 1 -i 24 -a 1 -x {1.0 3.1 13 ------- null}
+ -t 0.8424 -s 3 -d 2 -p ack -e 40 -c 1 -i 40 -a 1 -x {3.1 1.0 13 ------- null}
- -t 0.8424 -s 3 -d 2 -p ack -e 40 -c 1 -i 40 -a 1 -x {3.1 1.0 13 ------- null}
h -t 0.8424 -s 3 -d 2 -p ack -e 40 -c 1 -i 40 -a 1 -x {3.1 1.0 -1 ------- null}
r -t 0.8444 -s 3 -d 2 -p ack -e 40 -c 1 -i 37 -a 1 -x {3.1 1.0 12 ------- null}
+ -t 0.8444 -s 2 -d 1 -p ack -e 40 -c 1 -i 37 -a 1 -x {3.1 1.0 12 ------- null}
- -t 0.8444 -s 2 -d 1 -p ack -e 40 -c 1 -i 37 -a 1 -x {3.1 1.0 12 ------- null}
h -t 0.8444 -s 2 -d 1 -p ack -e 40 -c 1 -i 37 -a 1 -x {3.1 1.0 -1 ------- null}
r -t 0.8464 -s 2 -d 1 -p ack -e 40 -c 1 -i 34 -a 1 -x {3.1 1.0 11 ------- null}
+ -t 0.8464 -s 1 -d 2 -p tcp -e 1040 -c 1 -i 41 -a 1 -x {1.0 3.1 23 ------- null}
+ -t 0.8464 -s 1 -d 2 -p tcp -e 1040 -c 1 -i 42 -a 1 -x {1.0 3.1 24 ------- null}
- -t 0.84736 -s 1 -d 2 -p tcp -e 1040 -c 1 -i 33 -a 1 -x {1.0 3.1 18 ------- null}
h -t 0.84736 -s 1 -d 2 -p tcp -e 1040 -c 1 -i 33 -a 1 -x {1.0 3.1 -1 ------- null}
r -t 0.84904 -s 1 -d 2 -p tcp -e 1040 -c 1 -i 30 -a 1 -x {1.0 3.1 16 ------- null}
+ -t 0.84904 -s 2 -d 3 -p tcp -e 1040 -c 1 -i 30 -a 1 -x {1.0 3.1 16 ------- null}
- -t 0.84904 -s 2 -d 3 -p tcp -e 1040 -c 1 -i 30 -a 1 -x {1.0 3.1 16 ------- null}
h -t 0.84904 -s 2 -d 3 -p tcp -e 1040 -c 1 -i 30 -a 1 -x {1.0 3.1 -1 ------- null}
r -t 0.85072 -s 2 -d 3 -p tcp -e 1040 -c 1 -i 25 -a 1 -x {1.0 3.1 14 ------- null}
+ -t 0.85072 -s 3 -d 2 -p ack -e 40 -c 1 -i 43 -a 1 -x {3.1 1.0 14 ------- null}
- -t 0.85072 -s 3 -d 2 -p ack -e 40 -c 1 -i 43 -a 1 -x {3.1 1.0 14 ------- null}
h -t 0.85072 -s 3 -d 2 -p ack -e 40 -c 1 -i 43 -a 1 -x {3.1 1.0 -1 ------- null}
r -t 0.85272 -s 3 -d 2 -p ack -e 40 -c 1 -i 40 -a 1 -x {3.1 1.0 13 ------- null}
+ -t 0.85272 -s 2 -d 1 -p ack -e 40 -c 1 -i 40 -a 1 -x {3.1 1.0 13 ------- null}
- -t 0.85272 -s 2 -d 1 -p ack -e 40 -c 1 -i 40 -a 1 -x {3.1 1.0 13 ------- null}
h -t 0.85272 -s 2 -d 1 -p ack -e 40 -c 1 -i 40 -a 1 -x {3.1 1.0 -1 ------- null}
r -t 0.85472 -s 2 -d 1 -p ack -e 40 -c 1 -i 37 -a 1 -x {3.1 1.0 12 ------- null}
+ -t 0.85472 -s 1 -d 2 -p tcp -e 1040 -c 1 -i 44 -a 1 -x {1.0 3.1 25 ------- null}
+ -t 0.85472 -s 1 -d 2 -p tcp -e 1040 -c 1 -i 45 -a 1 -x {1.0 3.1 26 ------- null}
- -t 0.85568 -s 1 -d 2 -p tcp -e 1040 -c 1 -i 35 -a 1 -x {1.0 3.1 19 ------- null}
h -t 0.85568 -s 1 -d 2 -p tcp -e 1040 -c 1 -i 35 -a 1 -x {1.0 3.1 -1 ------- null}
r -t 0.85736 -s 1 -d 2 -p tcp -e 1040 -c 1 -i 32 -a 1 -x {1.0 3.1 17 ------- null}
+ -t 0.85736 -s 2 -d 3 -p tcp -e 1040 -c 1 -i 32 -a 1 -x {1.0 3.1 17 ------- null}
- -t 0.85736 -s 2 -d 3 -p tcp -e 1040 -c 1 -i 32 -a 1 -x {1.0 3.1 17 ------- null}
h -t 0.85736 -s 2 -d 3 -p tcp -e 1040 -c 1 -i 32 -a 1 -x {1.0 3.1 -1 ------- null}
r -t 0.85904 -s 2 -d 3 -p tcp -e 1040 -c 1 -i 29 -a 1 -x {1.0 3.1 15 ------- null}
+ -t 0.85904 -s 3 -d 2 -p ack -e 40 -c 1 -i 46 -a 1 -x {3.1 1.0 15 ------- null}
- -t 0.85904 -s 3 -d 2 -p ack -e 40 -c 1 -i 46 -a 1 -x {3.1 1.0 15 ------- null}
h -t 0.85904 -s 3 -d 2 -p ack -e 40 -c 1 -i 46 -a 1 -x {3.1 1.0 -1 ------- null}
r -t 0.86104 -s 3 -d 2 -p ack -e 40 -c 1 -i 43 -a 1 -x {3.1 1.0 14 ------- null}
+ -t 0.86104 -s 2 -d 1 -p ack -e 40 -c 1 -i 43 -a 1 -x {3.1 1.0 14 ------- null}
- -t 0.86104 -s 2 -d 1 -p ack -e 40 -c 1 -i 43 -a 1 -x {3.1 1.0 14 ------- null}
h -t 0.86104 -s 2 -d 1 -p ack -e 40 -c 1 -i 43 -a 1 -x {3.1 1.0 -1 ------- null}
r -t 0.86304 -s 2 -d 1 -p ack -e 40 -c 1 -i 40 -a 1 -x {3.1 1.0 13 ------- null}
+ -t 0.86304 -s 1 -d 2 -p tcp -e 1040 -c 1 -i 47 -a 1 -x {1.0 3.1 27 ------- null}
+ -t 0.86304 -s 1 -d 2 -p tcp -e 1040 -c 1 -i 48 -a 1 -x {1.0 3.1 28 ------- null}
- -t 0.864 -s 1 -d 2 -p tcp -e 1040 -c 1 -i 36 -a 1 -x {1.0 3.1 20 ------- null}
h -t 0.864 -s 1 -d 2 -p tcp -e 1040 -c 1 -i 36 -a 1 -x {1.0 3.1 -1 ------- null}
r -t 0.86568 -s 1 -d 2 -p tcp -e 1040 -c 1 -i 33 -a 1 -x {1.0 3.1 18 ------- null}
+ -t 0.86568 -s 2 -d 3 -p tcp -e 1040 -c 1 -i 33 -a 1 -x {1.0 3.1 18 ------- null}
- -t 0.86568 -s 2 -d 3 -p tcp -e 1040 -c 1 -i 33 -a 1 -x {1.0 3.1 18 ------- null}
h -t 0.86568 -s 2 -d 3 -p tcp -e 1040 -c 1 -i 33 -a 1 -x {1.0 3.1 -1 ------- null}
r -t 0.86736 -s 2 -d 3 -p tcp -e 1040 -c 1 -i 30 -a 1 -x {1.0 3.1 16 ------- null}
+ -t 0.86736 -s 3 -d 2 -p ack -e 40 -c 1 -i 49 -a 1 -x {3.1 1.0 16 ------- null}
- -t 0.86736 -s 3 -d 2 -p ack -e 40 -c 1 -i 49 -a 1 -x {3.1 1.0 16 ------- null}
h -t 0.86736 -s 3 -d 2 -p ack -e 40 -c 1 -i 49 -a 1 -x {3.1 1.0 -1 ------- null}
r -t 0.86936 -s 3 -d 2 -p ack -e 40 -c 1 -i 46 -a 1 -x {3.1 1.0 15 ------- null}
+ -t 0.86936 -s 2 -d 1 -p ack -e 40 -c 1 -i 46 -a 1 -x {3.1 1.0 15 ------- null}
- -t 0.86936 -s 2 -d 1 -p ack -e 40 -c 1 -i 46 -a 1 -x {3.1 1.0 15 ------- null}
h -t 0.86936 -s 2 -d 1 -p ack -e 40 -c 1 -i 46 -a 1 -x {3.1 1.0 -1 ------- null}
r -t 0.87136 -s 2 -d 1 -p ack -e 40 -c 1 -i 43 -a 1 -x {3.1 1.0 14 ------- null}
+ -t 0.87136 -s 1 -d 2 -p tcp -e 1040 -c 1 -i 50 -a 1 -x {1.0 3.1 29 ------- null}
+ -t 0.87136 -s 1 -d 2 -p tcp -e 1040 -c 1 -i 51 -a 1 -x {1.0 3.1 30 ------- null}
d -t 0.87136 -s 1 -d 2 -p tcp -e 1040 -c 1 -i 51 -a 1 -x {1.0 3.1 30 ------- null}
- -t 0.87232 -s 1 -d 2 -p tcp -e 1040 -c 1 -i 38 -a 1 -x {1.0 3.1 21 ------- null}
h -t 0.87232 -s 1 -d 2 -p tcp -e 1040 -c 1 -i 38 -a 1 -x {1.0 3.1 -1 ------- null}
r -t 0.874 -s 1 -d 2 -p tcp -e 1040 -c 1 -i 35 -a 1 -x {1.0 3.1 19 ------- null}
+ -t 0.874 -s 2 -d 3 -p tcp -e 1040 -c 1 -i 35 -a 1 -x {1.0 3.1 19 ------- null}
- -t 0.874 -s 2 -d 3 -p tcp -e 1040 -c 1 -i 35 -a 1 -x {1.0 3.1 19 ------- null}
h -t 0.874 -s 2 -d 3 -p tcp -e 1040 -c 1 -i 35 -a 1 -x {1.0 3.1 -1 ------- null}
r -t 0.87568 -s 2 -d 3 -p tcp -e 1040 -c 1 -i 32 -a 1 -x {1.0 3.1 17 ------- null}
+ -t 0.87568 -s 3 -d 2 -p ack -e 40 -c 1 -i 52 -a 1 -x {3.1 1.0 17 ------- null}
- -t 0.87568 -s 3 -d 2 -p ack -e 40 -c 1 -i 52 -a 1 -x {3.1 1.0 17 ------- null}
h -t 0.87568 -s 3 -d 2 -p ack -e 40 -c 1 -i 52 -a 1 -x {3.1 1.0 -1 ------- null}
r -t 0.87768 -s 3 -d 2 -p ack -e 40 -c 1 -i 49 -a 1 -x {3.1 1.0 16 ------- null}
+ -t 0.87768 -s 2 -d 1 -p ack -e 40 -c 1 -i 49 -a 1 -x {3.1 1.0 16 ------- null}
- -t 0.87768 -s 2 -d 1 -p ack -e 40 -c 1 -i 49 -a 1 -x {3.1 1.0 16 ------- null}
h -t 0.87768 -s 2 -d 1 -p ack -e 40 -c 1 -i 49 -a 1 -x {3.1 1.0 -1 ------- null}
r -t 0.87968 -s 2 -d 1 -p ack -e 40 -c 1 -i 46 -a 1 -x {3.1 1.0 15 ------- null}
+ -t 0.87968 -s 1 -d 2 -p tcp -e 1040 -c 1 -i 53 -a 1 -x {1.0 3.1 31 ------- null}
+ -t 0.87968 -s 1 -d 2 -p tcp -e 1040 -c 1 -i 54 -a 1 -x {1.0 3.1 32 ------- null}
d -t 0.87968 -s 1 -d 2 -p tcp -e 1040 -c 1 -i 54 -a 1 -x {1.0 3.1 32 ------- null}
- -t 0.88064 -s 1 -d 2 -p tcp -e 1040 -c 1 -i 39 -a 1 -x {1.0 3.1 22 ------- null}
h -t 0.88064 -s 1 -d 2 -p tcp -e 1040 -c 1 -i 39 -a 1 -x {1.0 3.1 -1 ------- null}
r -t 0.88232 -s 1 -d 2 -p tcp -e 1040 -c 1 -i 36 -a 1 -x {1.0 3.1 20 ------- null}
+ -t 0.88232 -s 2 -d 3 -p tcp -e 1040 -c 1 -i 36 -a 1 -x {1.0 3.1 20 ------- null}
- -t 0.88232 -s 2 -d 3 -p tcp -e 1040 -c 1 -i 36 -a 1 -x {1.0 3.1 20 ------- null}
h -t 0.88232 -s 2 -d 3 -p tcp -e 1040 -c 1 -i 36 -a 1 -x {1.0 3.1 -1 ------- null}
r -t 0.884 -s 2 -d 3 -p tcp -e 1040 -c 1 -i 33 -a 1 -x {1.0 3.1 18 ------- null}
+ -t 0.884 -s 3 -d 2 -p ack -e 40 -c 1 -i 55 -a 1 -x {3.1 1.0 18 ------- null}
- -t 0.884 -s 3 -d 2 -p ack -e 40 -c 1 -i 55 -a 1 -x {3.1 1.0 18 ------- null}
h -t 0.884 -s 3 -d 2 -p ack -e 40 -c 1 -i 55 -a 1 -x {3.1 1.0 -1 ------- null}
r -t 0.886 -s 3 -d 2 -p ack -e 40 -c 1 -i 52 -a 1 -x {3.1 1.0 17 ------- null}
+ -t 0.886 -s 2 -d 1 -p ack -e 40 -c 1 -i 52 -a 1 -x {3.1 1.0 17 ------- null}
- -t 0.886 -s 2 -d 1 -p ack -e 40 -c 1 -i 52 -a 1 -x {3.1 1.0 17 ------- null}
h -t 0.886 -s 2 -d 1 -p ack -e 40 -c 1 -i 52 -a 1 -x {3.1 1.0 -1 ------- null}