+ 0.5 0 2 cbr 512 ------- 2 0.0 2.0 0 0
- 0.5 0 2 cbr 512 ------- 2 0.0 2.0 0 0
+ 0.505 0 2 cbr 512 ------- 2 0.0 2.0 1 1
- 0.508192 0 2 cbr 512 ------- 2 0.0 2.0 1 1
+ 0.51 0 2 cbr 512 ------- 2 0.0 2.0 2 2
+ 0.515 0 2 cbr 512 ------- 2 0.0 2.0 3 3
- 0.516384 0 2 cbr 512 ------- 2 0.0 2.0 2 2
+ 0.52 0 2 cbr 512 ------- 2 0.0 2.0 4 4
- 0.524576 0 2 cbr 512 ------- 2 0.0 2.0 3 3
+ 0.525 0 2 cbr 512 ------- 2 0.0 2.0 5 5
r 0.528192 0 2 cbr 512 ------- 2 0.0 2.0 0 0
+ 0.53 0 2 cbr 512 ------- 2 0.0 2.0 6 6
- 0.532768 0 2 cbr 512 ------- 2 0.0 2.0 4 4
+ 0.535 0 2 cbr 512 ------- 2 0.0 2.0 7 7
r 0.536384 0 2 cbr 512 ------- 2 0.0 2.0 1 1
+ 0.54 0 2 cbr 512 ------- 2 0.0 2.0 8 8
- 0.54096 0 2 cbr 512 ------- 2 0.0 2.0 5 5
r 0.544576 0 2 cbr 512 ------- 2 0.0 2.0 2 2
+ 0.545 0 2 cbr 512 ------- 2 0.0 2.0 9 9
- 0.549152 0 2 cbr 512 ------- 2 0.0 2.0 6 6
+ 0.55 0 2 cbr 512 ------- 2 0.0 2.0 10 10
r 0.552768 0 2 cbr 512 ------- 2 0.0 2.0 3 3
+ 0.555 0 2 cbr 512 ------- 2 0.0 2.0 11 11
- 0.557344 0 2 cbr 512 ------- 2 0.0 2.0 7 7
+ 0.56 0 2 cbr 512 ------- 2 0.0 2.0 12 12
r 0.56096 0 2 cbr 512 ------- 2 0.0 2.0 4 4
+ 0.565 0 2 cbr 512 ------- 2 0.0 2.0 13 13
- 0.565536 0 2 cbr 512 ------- 2 0.0 2.0 8 8
r 0.569152 0 2 cbr 512 ------- 2 0.0 2.0 5 5
+ 0.57 0 2 cbr 512 ------- 2 0.0 2.0 14 14
- 0.573728 0 2 cbr 512 ------- 2 0.0 2.0 9 9
+ 0.575 0 2 cbr 512 ------- 2 0.0 2.0 15 15
r 0.577344 0 2 cbr 512 ------- 2 0.0 2.0 6 6
+ 0.58 0 2 cbr 512 ------- 2 0.0 2.0 16 16
- 0.58192 0 2 cbr 512 ------- 2 0.0 2.0 10 10
+ 0.585 0 2 cbr 512 ------- 2 0.0 2.0 17 17
r 0.585536 0 2 cbr 512 ------- 2 0.0 2.0 7 7
+ 0.59 0 2 cbr 512 ------- 2 0.0 2.0 18 18
- 0.590112 0 2 cbr 512 ------- 2 0.0 2.0 11 11
r 0.593728 0 2 cbr 512 ------- 2 0.0 2.0 8 8
+ 0.595 0 2 cbr 512 ------- 2 0.0 2.0 19 19
- 0.598304 0 2 cbr 512 ------- 2 0.0 2.0 12 12
+ 0.6 0 2 cbr 512 ------- 2 0.0 2.0 20 20
r 0.60192 0 2 cbr 512 ------- 2 0.0 2.0 9 9
+ 0.605 0 2 cbr 512 ------- 2 0.0 2.0 21 21
- 0.606496 0 2 cbr 512 ------- 2 0.0 2.0 13 13
+ 0.61 0 2 cbr 512 ------- 2 0.0 2.0 22 22
r 0.610112 0 2 cbr 512 ------- 2 0.0 2.0 10 10
- 0.614688 0 2 cbr 512 ------- 2 0.0 2.0 14 14
+ 0.615 0 2 cbr 512 ------- 2 0.0 2.0 23 23
r 0.618304 0 2 cbr 512 ------- 2 0.0 2.0 11 11
+ 0.62 0 2 cbr 512 ------- 2 0.0 2.0 24 24
- 0.62288 0 2 cbr 512 ------- 2 0.0 2.0 15 15
+ 0.625 0 2 cbr 512 ------- 2 0.0 2.0 25 25
r 0.626496 0 2 cbr 512 ------- 2 0.0 2.0 12 12
+ 0.63 0 2 cbr 512 ------- 2 0.0 2.0 26 26
- 0.631072 0 2 cbr 512 ------- 2 0.0 2.0 16 16
r 0.634688 0 2 cbr 512 ------- 2 0.0 2.0 13 13
+ 0.635 0 2 cbr 512 ------- 2 0.0 2.0 27 27
- 0.639264 0 2 cbr 512 ------- 2 0.0 2.0 17 17
+ 0.64 0 2 cbr 512 ------- 2 0.0 2.0 28 28
r 0.64288 0 2 cbr 512 ------- 2 0.0 2.0 14 14
+ 0.645 0 2 cbr 512 ------- 2 0.0 2.0 29 29
- 0.647456 0 2 cbr 512 ------- 2 0.0 2.0 18 18
+ 0.65 0 2 cbr 512 ------- 2 0.0 2.0 30 30
r 0.651072 0 2 cbr 512 ------- 2 0.0 2.0 15 15
+ 0.655 0 2 cbr 512 ------- 2 0.0 2.0 31 31
- 0.655648 0 2 cbr 512 ------- 2 0.0 2.0 19 19
r 0.659264 0 2 cbr 512 ------- 2 0.0 2.0 16 16
+ 0.66 0 2 cbr 512 ------- 2 0.0 2.0 32 32
- 0.66384 0 2 cbr 512 ------- 2 0.0 2.0 20 20
+ 0.665 0 2 cbr 512 ------- 2 0.0 2.0 33 33
r 0.667456 0 2 cbr 512 ------- 2 0.0 2.0 17 17
+ 0.67 0 2 cbr 512 ------- 2 0.0 2.0 34 34
- 0.672032 0 2 cbr 512 ------- 2 0.0 2.0 21 21
+ 0.675 0 2 cbr 512 ------- 2 0.0 2.0 35 35
r 0.675648 0 2 cbr 512 ------- 2 0.0 2.0 18 18
+ 0.68 0 2 cbr 512 ------- 2 0.0 2.0 36 36
- 0.680224 0 2 cbr 512 ------- 2 0.0 2.0 22 22
r 0.68384 0 2 cbr 512 ------- 2 0.0 2.0 19 19
+ 0.685 0 2 cbr 512 ------- 2 0.0 2.0 37 37
- 0.688416 0 2 cbr 512 ------- 2 0.0 2.0 23 23
+ 0.69 0 2 cbr 512 ------- 2 0.0 2.0 38 38
r 0.692032 0 2 cbr 512 ------- 2 0.0 2.0 20 20
+ 0.695 0 2 cbr 512 ------- 2 0.0 2.0 39 39
- 0.696608 0 2 cbr 512 ------- 2 0.0 2.0 24 24
+ 0.7 0 2 cbr 512 ------- 2 0.0 2.0 40 40
r 0.700224 0 2 cbr 512 ------- 2 0.0 2.0 21 21
- 0.7048 0 2 cbr 512 ------- 2 0.0 2.0 25 25
+ 0.705 0 2 cbr 512 ------- 2 0.0 2.0 41 41
r 0.708416 0 2 cbr 512 ------- 2 0.0 2.0 22 22
+ 0.71 0 2 cbr 512 ------- 2 0.0 2.0 42 42
- 0.712992 0 2 cbr 512 ------- 2 0.0 2.0 26 26
+ 0.715 0 2 cbr 512 ------- 2 0.0 2.0 43 43
r 0.716608 0 2 cbr 512 ------- 2 0.0 2.0 23 23
+ 0.72 0 2 cbr 512 ------- 2 0.0 2.0 44 44
- 0.721184 0 2 cbr 512 ------- 2 0.0 2.0 27 27
r 0.7248 0 2 cbr 512 ------- 2 0.0 2.0 24 24
+ 0.725 0 2 cbr 512 ------- 2 0.0 2.0 45 45
- 0.729376 0 2 cbr 512 ------- 2 0.0 2.0 28 28
+ 0.73 0 2 cbr 512 ------- 2 0.0 2.0 46 46
r 0.732992 0 2 cbr 512 ------- 2 0.0 2.0 25 25
+ 0.735 0 2 cbr 512 ------- 2 0.0 2.0 47 47
- 0.737568 0 2 cbr 512 ------- 2 0.0 2.0 29 29
+ 0.74 0 2 cbr 512 ------- 2 0.0 2.0 48 48
r 0.741184 0 2 cbr 512 ------- 2 0.0 2.0 26 26
+ 0.745 0 2 cbr 512 ------- 2 0.0 2.0 49 49
- 0.74576 0 2 cbr 512 ------- 2 0.0 2.0 30 30
r 0.749376 0 2 cbr 512 ------- 2 0.0 2.0 27 27
+ 0.75 0 2 cbr 512 ------- 2 0.0 2.0 50 50
- 0.753952 0 2 cbr 512 ------- 2 0.0 2.0 31 31
+ 0.755 0 2 cbr 512 ------- 2 0.0 2.0 51 51
r 0.757568 0 2 cbr 512 ------- 2 0.0 2.0 28 28
+ 0.76 0 2 cbr 512 ------- 2 0.0 2.0 52 52
- 0.762144 0 2 cbr 512 ------- 2 0.0 2.0 32 32
+ 0.765 0 2 cbr 512 ------- 2 0.0 2.0 53 53
r 0.76576 0 2 cbr 512 ------- 2 0.0 2.0 29 29
+ 0.77 0 2 cbr 512 ------- 2 0.0 2.0 54 54
- 0.770336 0 2 cbr 512 ------- 2 0.0 2.0 33 33
r 0.773952 0 2 cbr 512 ------- 2 0.0 2.0 30 30
+ 0.775 0 2 cbr 512 ------- 2 0.0 2.0 55 55
- 0.778528 0 2 cbr 512 ------- 2 0.0 2.0 34 34
+ 0.78 0 2 cbr 512 ------- 2 0.0 2.0 56 56
r 0.782144 0 2 cbr 512 ------- 2 0.0 2.0 31 31
+ 0.785 0 2 cbr 512 ------- 2 0.0 2.0 57 57
- 0.78672 0 2 cbr 512 ------- 2 0.0 2.0 35 35
+ 0.79 0 2 cbr 512 ------- 2 0.0 2.0 58 58
r 0.790336 0 2 cbr 512 ------- 2 0.0 2.0 32 32
- 0.794912 0 2 cbr 512 ------- 2 0.0 2.0 36 36
+ 0.795 0 2 cbr 512 ------- 2 0.0 2.0 59 59
r 0.798528 0 2 cbr 512 ------- 2 0.0 2.0 33 33
+ 0.8 0 2 cbr 512 ------- 2 0.0 2.0 60 60
- 0.803104 0 2 cbr 512 ------- 2 0.0 2.0 37 37
+ 0.805 0 2 cbr 512 ------- 2 0.0 2.0 61 61
r 0.80672 0 2 cbr 512 ------- 2 0.0 2.0 34 34
+ 0.81 0 2 cbr 512 ------- 2 0.0 2.0 62 62
- 0.811296 0 2 cbr 512 ------- 2 0.0 2.0 38 38
r 0.814912 0 2 cbr 512 ------- 2 0.0 2.0 35 35
+ 0.815 0 2 cbr 512 ------- 2 0.0 2.0 63 63
- 0.819488 0 2 cbr 512 ------- 2 0.0 2.0 39 39
+ 0.82 0 2 cbr 512 ------- 2 0.0 2.0 64 64
r 0.823104 0 2 cbr 512 ------- 2 0.0 2.0 36 36
+ 0.825 0 2 cbr 512 ------- 2 0.0 2.0 65 65
- 0.82768 0 2 cbr 512 ------- 2 0.0 2.0 40 40
+ 0.83 0 2 cbr 512 ------- 2 0.0 2.0 66 66
r 0.831296 0 2 cbr 512 ------- 2 0.0 2.0 37 37
+ 0.835 0 2 cbr 512 ------- 2 0.0 2.0 67 67
- 0.835872 0 2 cbr 512 ------- 2 0.0 2.0 41 41
r 0.839488 0 2 cbr 512 ------- 2 0.0 2.0 38 38
+ 0.84 0 2 cbr 512 ------- 2 0.0 2.0 68 68
- 0.844064 0 2 cbr 512 ------- 2 0.0 2.0 42 42
+ 0.845 0 2 cbr 512 ------- 2 0.0 2.0 69 69
r 0.84768 0 2 cbr 512 ------- 2 0.0 2.0 39 39
+ 0.85 0 2 cbr 512 ------- 2 0.0 2.0 70 70
- 0.852256 0 2 cbr 512 ------- 2 0.0 2.0 43 43
+ 0.855 0 2 cbr 512 ------- 2 0.0 2.0 71 71
r 0.855872 0 2 cbr 512 ------- 2 0.0 2.0 40 40
+ 0.86 0 2 cbr 512 ------- 2 0.0 2.0 72 72
- 0.860448 0 2 cbr 512 ------- 2 0.0 2.0 44 44
r 0.864064 0 2 cbr 512 ------- 2 0.0 2.0 41 41
+ 0.865 0 2 cbr 512 ------- 2 0.0 2.0 73 73
- 0.86864 0 2 cbr 512 ------- 2 0.0 2.0 45 45
+ 0.87 0 2 cbr 512 ------- 2 0.0 2.0 74 74
r 0.872256 0 2 cbr 512 ------- 2 0.0 2.0 42 42
+ 0.875 0 2 cbr 512 ------- 2 0.0 2.0 75 75
- 0.876832 0 2 cbr 512 ------- 2 0.0 2.0 46 46
+ 0.88 0 2 cbr 512 ------- 2 0.0 2.0 76 76
r 0.880448 0 2 cbr 512 ------- 2 0.0 2.0 43 43
+ 0.885 0 2 cbr 512 ------- 2 0.0 2.0 77 77
- 0.885024 0 2 cbr 512 ------- 2 0.0 2.0 47 47
r 0.88864 0 2 cbr 512 ------- 2 0.0 2.0 44 44
+ 0.89 0 2 cbr 512 ------- 2 0.0 2.0 78 78
- 0.893216 0 2 cbr 512 ------- 2 0.0 2.0 48 48
+ 0.895 0 2 cbr 512 ------- 2 0.0 2.0 79 79
r 0.896832 0 2 cbr 512 ------- 2 0.0 2.0 45 45
+ 0.9 0 2 cbr 512 ------- 2 0.0 2.0 80 80
- 0.901408 0 2 cbr 512 ------- 2 0.0 2.0 49 49
+ 0.905 0 2 cbr 512 ------- 2 0.0 2.0 81 81
r 0.905024 0 2 cbr 512 ------- 2 0.0 2.0 46 46
- 0.9096 0 2 cbr 512 ------- 2 0.0 2.0 50 50
+ 0.91 0 2 cbr 512 ------- 2 0.0 2.0 82 82
r 0.913216 0 2 cbr 512 ------- 2 0.0 2.0 47 47
+ 0.915 0 2 cbr 512 ------- 2 0.0 2.0 83 83
- 0.917792 0 2 cbr 512 ------- 2 0.0 2.0 51 51
+ 0.92 0 2 cbr 512 ------- 2 0.0 2.0 84 84
r 0.921408 0 2 cbr 512 ------- 2 0.0 2.0 48 48
+ 0.925 0 2 cbr 512 ------- 2 0.0 2.0 85 85
- 0.925984 0 2 cbr 512 ------- 2 0.0 2.0 52 52
r 0.9296 0 2 cbr 512 ------- 2 0.0 2.0 49 49
+ 0.93 0 2 cbr 512 ------- 2 0.0 2.0 86 86
- 0.934176 0 2 cbr 512 ------- 2 0.0 2.0 53 53
+ 0.935 0 2 cbr 512 ------- 2 0.0 2.0 87 87
r 0.937792 0 2 cbr 512 ------- 2 0.0 2.0 50 50
+ 0.94 0 2 cbr 512 ------- 2 0.0 2.0 88 88
- 0.942368 0 2 cbr 512 ------- 2 0.0 2.0 54 54
+ 0.945 0 2 cbr 512 ------- 2 0.0 2.0 89 89
r 0.945984 0 2 cbr 512 ------- 2 0.0 2.0 51 51
+ 0.95 0 2 cbr 512 ------- 2 0.0 2.0 90 90
- 0.95056 0 2 cbr 512 ------- 2 0.0 2.0 55 55
r 0.954176 0 2 cbr 512 ------- 2 0.0 2.0 52 52
+ 0.955 0 2 cbr 512 ------- 2 0.0 2.0 91 91
- 0.958752 0 2 cbr 512 ------- 2 0.0 2.0 56 56
+ 0.96 0 2 cbr 512 ------- 2 0.0 2.0 92 92
r 0.962368 0 2 cbr 512 ------- 2 0.0 2.0 53 53
+ 0.965 0 2 cbr 512 ------- 2 0.0 2.0 93 93
- 0.966944 0 2 cbr 512 ------- 2 0.0 2.0 57 57
+ 0.97 0 2 cbr 512 ------- 2 0.0 2.0 94 94
r 0.97056 0 2 cbr 512 ------- 2 0.0 2.0 54 54
+ 0.975 0 2 cbr 512 ------- 2 0.0 2.0 95 95
- 0.975136 0 2 cbr 512 ------- 2 0.0 2.0 58 58
r 0.978752 0 2 cbr 512 ------- 2 0.0 2.0 55 55
+ 0.98 0 2 cbr 512 ------- 2 0.0 2.0 96 96
- 0.983328 0 2 cbr 512 ------- 2 0.0 2.0 59 59
+ 0.985 0 2 cbr 512 ------- 2 0.0 2.0 97 97
r 0.986944 0 2 cbr 512 ------- 2 0.0 2.0 56 56
+ 0.99 0 2 cbr 512 ------- 2 0.0 2.0 98 98
- 0.99152 0 2 cbr 512 ------- 2 0.0 2.0 60 60
+ 0.995 0 2 cbr 512 ------- 2 0.0 2.0 99 99
r 0.995136 0 2 cbr 512 ------- 2 0.0 2.0 57 57
- 0.999712 0 2 cbr 512 ------- 2 0.0 2.0 61 61
+ 1 0 2 cbr 512 ------- 2 0.0 2.0 100 100
r 1.003328 0 2 cbr 512 ------- 2 0.0 2.0 58 58
+ 1.005 0 2 cbr 512 ------- 2 0.0 2.0 101 101
- 1.007904 0 2 cbr 512 ------- 2 0.0 2.0 62 62
+ 1.01 0 2 cbr 512 ------- 2 0.0 2.0 102 102
r 1.01152 0 2 cbr 512 ------- 2 0.0 2.0 59 59
+ 1.015 0 2 cbr 512 ------- 2 0.0 2.0 103 103
- 1.016096 0 2 cbr 512 ------- 2 0.0 2.0 63 63
r 1.019712 0 2 cbr 512 ------- 2 0.0 2.0 60 60
+ 1.02 0 2 cbr 512 ------- 2 0.0 2.0 104 104
- 1.024288 0 2 cbr 512 ------- 2 0.0 2.0 64 64
+ 1.025 0 2 cbr 512 ------- 2 0.0 2.0 105 105
r 1.027904 0 2 cbr 512 ------- 2 0.0 2.0 61 61
+ 1.03 0 2 cbr 512 ------- 2 0.0 2.0 106 106
- 1.03248 0 2 cbr 512 ------- 2 0.0 2.0 65 65
+ 1.035 0 2 cbr 512 ------- 2 0.0 2.0 107 107
r 1.036096 0 2 cbr 512 ------- 2 0.0 2.0 62 62
+ 1.04 0 2 cbr 512 ------- 2 0.0 2.0 108 108
- 1.040672 0 2 cbr 512 ------- 2 0.0 2.0 66 66
r 1.044288 0 2 cbr 512 ------- 2 0.0 2.0 63 63
+ 1.045 0 2 cbr 512 ------- 2 0.0 2.0 109 109
- 1.048864 0 2 cbr 512 ------- 2 0.0 2.0 67 67
+ 1.05 0 2 cbr 512 ------- 2 0.0 2.0 110 110
r 1.05248 0 2 cbr 512 ------- 2 0.0 2.0 64 64
+ 1.055 0 2 cbr 512 ------- 2 0.0 2.0 111 111
- 1.057056 0 2 cbr 512 ------- 2 0.0 2.0 68 68
+ 1.06 0 2 cbr 512 ------- 2 0.0 2.0 112 112
r 1.060672 0 2 cbr 512 ------- 2 0.0 2.0 65 65
+ 1.065 0 2 cbr 512 ------- 2 0.0 2.0 113 113
- 1.065248 0 2 cbr 512 ------- 2 0.0 2.0 69 69
r 1.068864 0 2 cbr 512 ------- 2 0.0 2.0 66 66
+ 1.07 0 2 cbr 512 ------- 2 0.0 2.0 114 114
- 1.07344 0 2 cbr 512 ------- 2 0.0 2.0 70 70
+ 1.075 0 2 cbr 512 ------- 2 0.0 2.0 115 115
r 1.077056 0 2 cbr 512 ------- 2 0.0 2.0 67 67
+ 1.08 0 2 cbr 512 ------- 2 0.0 2.0 116 116
- 1.081632 0 2 cbr 512 ------- 2 0.0 2.0 71 71
+ 1.085 0 2 cbr 512 ------- 2 0.0 2.0 117 117
r 1.085248 0 2 cbr 512 ------- 2 0.0 2.0 68 68
- 1.089824 0 2 cbr 512 ------- 2 0.0 2.0 72 72
+ 1.09 0 2 cbr 512 ------- 2 0.0 2.0 118 118
r 1.09344 0 2 cbr 512 ------- 2 0.0 2.0 69 69
+ 1.095 0 2 cbr 512 ------- 2 0.0 2.0 119 119
- 1.098016 0 2 cbr 512 ------- 2 0.0 2.0 73 73
+ 1.1 0 2 cbr 512 ------- 2 0.0 2.0 120 120
r 1.101632 0 2 cbr 512 ------- 2 0.0 2.0 70 70
+ 1.105 0 2 cbr 512 ------- 2 0.0 2.0 121 121
- 1.106208 0 2 cbr 512 ------- 2 0.0 2.0 74 74
r 1.109824 0 2 cbr 512 ------- 2 0.0 2.0 71 71
+ 1.11 0 2 cbr 512 ------- 2 0.0 2.0 122 122
- 1.1144 0 2 cbr 512 ------- 2 0.0 2.0 75 75
+ 1.115 0 2 cbr 512 ------- 2 0.0 2.0 123 123
r 1.118016 0 2 cbr 512 ------- 2 0.0 2.0 72 72
+ 1.12 0 2 cbr 512 ------- 2 0.0 2.0 124 124
- 1.122592 0 2 cbr 512 ------- 2 0.0 2.0 76 76
+ 1.125 0 2 cbr 512 ------- 2 0.0 2.0 125 125
r 1.126208 0 2 cbr 512 ------- 2 0.0 2.0 73 73
+ 1.13 0 2 cbr 512 ------- 2 0.0 2.0 126 126
d 1.13 0 2 cbr 512 ------- 2 0.0 2.0 126 126
- 1.130784 0 2 cbr 512 ------- 2 0.0 2.0 77 77
r 1.1344 0 2 cbr 512 ------- 2 0.0 2.0 74 74
+ 1.135 0 2 cbr 512 ------- 2 0.0 2.0 127 127
- 1.138976 0 2 cbr 512 ------- 2 0.0 2.0 78 78
+ 1.14 0 2 cbr 512 ------- 2 0.0 2.0 128 128
r 1.142592 0 2 cbr 512 ------- 2 0.0 2.0 75 75
+ 1.145 0 2 cbr 512 ------- 2 0.0 2.0 129 129
d 1.145 0 2 cbr 512 ------- 2 0.0 2.0 129 129
- 1.147168 0 2 cbr 512 ------- 2 0.0 2.0 79 79
+ 1.15 0 2 cbr 512 ------- 2 0.0 2.0 130 130
r 1.150784 0 2 cbr 512 ------- 2 0.0 2.0 76 76
+ 1.155 0 2 cbr 512 ------- 2 0.0 2.0 131 131
d 1.155 0 2 cbr 512 ------- 2 0.0 2.0 131 131
- 1.15536 0 2 cbr 512 ------- 2 0.0 2.0 80 80
r 1.158976 0 2 cbr 512 ------- 2 0.0 2.0 77 77
+ 1.16 0 2 cbr 512 ------- 2 0.0 2.0 132 132
- 1.163552 0 2 cbr 512 ------- 2 0.0 2.0 81 81
+ 1.165 0 2 cbr 512 ------- 2 0.0 2.0 133 133
r 1.167168 0 2 cbr 512 ------- 2 0.0 2.0 78 78
+ 1.17 0 2 cbr 512 ------- 2 0.0 2.0 134 134
d 1.17 0 2 cbr 512 ------- 2 0.0 2.0 134 134
- 1.171744 0 2 cbr 512 ------- 2 0.0 2.0 82 82
+ 1.175 0 2 cbr 512 ------- 2 0.0 2.0 135 135
r 1.17536 0 2 cbr 512 ------- 2 0.0 2.0 79 79
- 1.179936 0 2 cbr 512 ------- 2 0.0 2.0 83 83
+ 1.18 0 2 cbr 512 ------- 2 0.0 2.0 136 136
r 1.183552 0 2 cbr 512 ------- 2 0.0 2.0 80 80
+ 1.185 0 2 cbr 512 ------- 2 0.0 2.0 137 137
d 1.185 0 2 cbr 512 ------- 2 0.0 2.0 137 137
- 1.188128 0 2 cbr 512 ------- 2 0.0 2.0 84 84
+ 1.19 0 2 cbr 512 ------- 2 0.0 2.0 138 138
r 1.191744 0 2 cbr 512 ------- 2 0.0 2.0 81 81
+ 1.195 0 2 cbr 512 ------- 2 0.0 2.0 139 139
d 1.195 0 2 cbr 512 ------- 2 0.0 2.0 139 139
- 1.19632 0 2 cbr 512 ------- 2 0.0 2.0 85 85
r 1.199936 0 2 cbr 512 ------- 2 0.0 2.0 82 82
+ 1.2 0 2 cbr 512 ------- 2 0.0 2.0 140 140
- 1.204512 0 2 cbr 512 ------- 2 0.0 2.0 86 86
+ 1.205 0 2 cbr 512 ------- 2 0.0 2.0 141 141
r 1.208128 0 2 cbr 512 ------- 2 0.0 2.0 83 83
+ 1.21 0 2 cbr 512 ------- 2 0.0 2.0 142 142
d 1.21 0 2 cbr 512 ------- 2 0.0 2.0 142 142
- 1.212704 0 2 cbr 512 ------- 2 0.0 2.0 87 87
+ 1.215 0 2 cbr 512 ------- 2 0.0 2.0 143 143
r 1.21632 0 2 cbr 512 ------- 2 0.0 2.0 84 84
+ 1.22 0 2 cbr 512 ------- 2 0.0 2.0 144 144
d 1.22 0 2 cbr 512 ------- 2 0.0 2.0 144 144
- 1.220896 0 2 cbr 512 ------- 2 0.0 2.0 88 88
r 1.224512 0 2 cbr 512 ------- 2 0.0 2.0 85 85
+ 1.225 0 2 cbr 512 ------- 2 0.0 2.0 145 145
- 1.229088 0 2 cbr 512 ------- 2 0.0 2.0 89 89
+ 1.23 0 2 cbr 512 ------- 2 0.0 2.0 146 146
r 1.232704 0 2 cbr 512 ------- 2 0.0 2.0 86 86
+ 1.235 0 2 cbr 512 ------- 2 0.0 2.0 147 147
d 1.235 0 2 cbr 512 ------- 2 0.0 2.0 147 147
- 1.23728 0 2 cbr 512 ------- 2 0.0 2.0 90 90
+ 1.24 0 2 cbr 512 ------- 2 0.0 2.0 148 148
r 1.240896 0 2 cbr 512 ------- 2 0.0 2.0 87 87
+ 1.245 0 2 cbr 512 ------- 2 0.0 2.0 149 149
d 1.245 0 2 cbr 512 ------- 2 0.0 2.0 149 149
- 1.245472 0 2 cbr 512 ------- 2 0.0 2.0 91 91
r 1.249088 0 2 cbr 512 ------- 2 0.0 2.0 88 88
+ 1.25 0 2 cbr 512 ------- 2 0.0 2.0 150 150
- 1.253664 0 2 cbr 512 ------- 2 0.0 2.0 92 92
+ 1.255 0 2 cbr 512 ------- 2 0.0 2.0 151 151
r 1.25728 0 2 cbr 512 ------- 2 0.0 2.0 89 89
+ 1.26 0 2 cbr 512 ------- 2 0.0 2.0 152 152
d 1.26 0 2 cbr 512 ------- 2 0.0 2.0 152 152
- 1.261856 0 2 cbr 512 ------- 2 0.0 2.0 93 93
+ 1.265 0 2 cbr 512 ------- 2 0.0 2.0 153 153
r 1.265472 0 2 cbr 512 ------- 2 0.0 2.0 90 90
+ 1.27 0 2 cbr 512 ------- 2 0.0 2.0 154 154
d 1.27 0 2 cbr 512 ------- 2 0.0 2.0 154 154
- 1.270048 0 2 cbr 512 ------- 2 0.0 2.0 94 94
r 1.273664 0 2 cbr 512 ------- 2 0.0 2.0 91 91
+ 1.275 0 2 cbr 512 ------- 2 0.0 2.0 155 155
- 1.27824 0 2 cbr 512 ------- 2 0.0 2.0 95 95
+ 1.28 0 2 cbr 512 ------- 2 0.0 2.0 156 156
r 1.281856 0 2 cbr 512 ------- 2 0.0 2.0 92 92
+ 1.285 0 2 cbr 512 ------- 2 0.0 2.0 157 157
d 1.285 0 2 cbr 512 ------- 2 0.0 2.0 157 157
- 1.286432 0 2 cbr 512 ------- 2 0.0 2.0 96 96
+ 1.29 0 2 cbr 512 ------- 2 0.0 2.0 158 158
r 1.290048 0 2 cbr 512 ------- 2 0.0 2.0 93 93
- 1.294624 0 2 cbr 512 ------- 2 0.0 2.0 97 97
+ 1.295 0 2 cbr 512 ------- 2 0.0 2.0 159 159
r 1.29824 0 2 cbr 512 ------- 2 0.0 2.0 94 94
+ 1.3 0 2 cbr 512 ------- 2 0.0 2.0 160 160
d 1.3 0 2 cbr 512 ------- 2 0.0 2.0 160 160
- 1.302816 0 2 cbr 512 ------- 2 0.0 2.0 98 98
+ 1.305 0 2 cbr 512 ------- 2 0.0 2.0 161 161
r 1.306432 0 2 cbr 512 ------- 2 0.0 2.0 95 95
+ 1.31 0 2 cbr 512 ------- 2 0.0 2.0 162 162
d 1.31 0 2 cbr 512 ------- 2 0.0 2.0 162 162
- 1.311008 0 2 cbr 512 ------- 2 0.0 2.0 99 99
r 1.314624 0 2 cbr 512 ------- 2 0.0 2.0 96 96
+ 1.315 0 2 cbr 512 ------- 2 0.0 2.0 163 163
- 1.3192 0 2 cbr 512 ------- 2 0.0 2.0 100 100
+ 1.32 0 2 cbr 512 ------- 2 0.0 2.0 164 164
r 1.322816 0 2 cbr 512 ------- 2 0.0 2.0 97 97
+ 1.325 0 2 cbr 512 ------- 2 0.0 2.0 165 165
d 1.325 0 2 cbr 512 ------- 2 0.0 2.0 165 165
- 1.327392 0 2 cbr 512 ------- 2 0.0 2.0 101 101
+ 1.33 0 2 cbr 512 ------- 2 0.0 2.0 166 166
r 1.331008 0 2 cbr 512 ------- 2 0.0 2.0 98 98
+ 1.335 0 2 cbr 512 ------- 2 0.0 2.0 167 167
d 1.335 0 2 cbr 512 ------- 2 0.0 2.0 167 167
- 1.335584 0 2 cbr 512 ------- 2 0.0 2.0 102 102
r 1.3392 0 2 cbr 512 ------- 2 0.0 2.0 99 99
+ 1.34 0 2 cbr 512 ------- 2 0.0 2.0 168 168
- 1.343776 0 2 cbr 512 ------- 2 0.0 2.0 103 103
+ 1.345 0 2 cbr 512 ------- 2 0.0 2.0 169 169
r 1.347392 0 2 cbr 512 ------- 2 0.0 2.0 100 100
+ 1.35 0 2 cbr 512 ------- 2 0.0 2.0 170 170
d 1.35 0 2 cbr 512 ------- 2 0.0 2.0 170 170
- 1.351968 0 2 cbr 512 ------- 2 0.0 2.0 104 104
+ 1.355 0 2 cbr 512 ------- 2 0.0 2.0 171 171
r 1.355584 0 2 cbr 512 ------- 2 0.0 2.0 101 101
+ 1.36 0 2 cbr 512 ------- 2 0.0 2.0 172 172
d 1.36 0 2 cbr 512 ------- 2 0.0 2.0 172 172
- 1.36016 0 2 cbr 512 ------- 2 0.0 2.0 105 105
r 1.363776 0 2 cbr 512 ------- 2 0.0 2.0 102 102
+ 1.365 0 2 cbr 512 ------- 2 0.0 2.0 173 173
- 1.368352 0 2 cbr 512 ------- 2 0.0 2.0 106 106
+ 1.37 0 2 cbr 512 ------- 2 0.0 2.0 174 174
r 1.371968 0 2 cbr 512 ------- 2 0.0 2.0 103 103
+ 1.375 0 2 cbr 512 ------- 2 0.0 2.0 175 175
d 1.375 0 2 cbr 512 ------- 2 0.0 2.0 175 175
- 1.376544 0 2 cbr 512 ------- 2 0.0 2.0 107 107
+ 1.38 0 2 cbr 512 ------- 2 0.0 2.0 176 176
r 1.38016 0 2 cbr 512 ------- 2 0.0 2.0 104 104
- 1.384736 0 2 cbr 512 ------- 2 0.0 2.0 108 108
+ 1.385 0 2 cbr 512 ------- 2 0.0 2.0 177 177
r 1.388352 0 2 cbr 512 ------- 2 0.0 2.0 105 105
+ 1.39 0 2 cbr 512 ------- 2 0.0 2.0 178 178
d 1.39 0 2 cbr 512 ------- 2 0.0 2.0 178 178
- 1.392928 0 2 cbr 512 ------- 2 0.0 2.0 109 109
+ 1.395 0 2 cbr 512 ------- 2 0.0 2.0 179 179
r 1.396544 0 2 cbr 512 ------- 2 0.0 2.0 106 106
+ 1.4 0 2 cbr 512 ------- 2 0.0 2.0 180 180
d 1.4 0 2 cbr 512 ------- 2 0.0 2.0 180 180
- 1.40112 0 2 cbr 512 ------- 2 0.0 2.0 110 110
r 1.404736 0 2 cbr 512 ------- 2 0.0 2.0 107 107
+ 1.405 0 2 cbr 512 ------- 2 0.0 2.0 181 181
- 1.409312 0 2 cbr 512 ------- 2 0.0 2.0 111 111
+ 1.41 0 2 cbr 512 ------- 2 0.0 2.0 182 182
r 1.412928 0 2 cbr 512 ------- 2 0.0 2.0 108 108
+ 1.415 0 2 cbr 512 ------- 2 0.0 2.0 183 183
d 1.415 0 2 cbr 512 ------- 2 0.0 2.0 183 183
- 1.417504 0 2 cbr 512 ------- 2 0.0 2.0 112 112
+ 1.42 0 2 cbr 512 ------- 2 0.0 2.0 184 184
r 1.42112 0 2 cbr 512 ------- 2 0.0 2.0 109 109
+ 1.425 0 2 cbr 512 ------- 2 0.0 2.0 185 185
d 1.425 0 2 cbr 512 ------- 2 0.0 2.0 185 185
- 1.425696 0 2 cbr 512 ------- 2 0.0 2.0 113 113
r 1.429312 0 2 cbr 512 ------- 2 0.0 2.0 110 110
+ 1.43 0 2 cbr 512 ------- 2 0.0 2.0 186 186
- 1.433888 0 2 cbr 512 ------- 2 0.0 2.0 114 114
+ 1.435 0 2 cbr 512 ------- 2 0.0 2.0 187 187
r 1.437504 0 2 cbr 512 ------- 2 0.0 2.0 111 111
+ 1.44 0 2 cbr 512 ------- 2 0.0 2.0 188 188
d 1.44 0 2 cbr 512 ------- 2 0.0 2.0 188 188
- 1.44208 0 2 cbr 512 ------- 2 0.0 2.0 115 115
+ 1.445 0 2 cbr 512 ------- 2 0.0 2.0 189 189
r 1.445696 0 2 cbr 512 ------- 2 0.0 2.0 112 112
+ 1.45 0 2 cbr 512 ------- 2 0.0 2.0 190 190
d 1.45 0 2 cbr 512 ------- 2 0.0 2.0 190 190
- 1.450272 0 2 cbr 512 ------- 2 0.0 2.0 116 116
r 1.453888 0 2 cbr 512 ------- 2 0.0 2.0 113 113
+ 1.455 0 2 cbr 512 ------- 2 0.0 2.0 191 191
- 1.458464 0 2 cbr 512 ------- 2 0.0 2.0 117 117
+ 1.46 0 2 cbr 512 ------- 2 0.0 2.0 192 192
r 1.46208 0 2 cbr 512 ------- 2 0.0 2.0 114 114
+ 1.465 0 2 cbr 512 ------- 2 0.0 2.0 193 193
d 1.465 0 2 cbr 512 ------- 2 0.0 2.0 193 193
- 1.466656 0 2 cbr 512 ------- 2 0.0 2.0 118 118
+ 1.47 0 2 cbr 512 ------- 2 0.0 2.0 194 194
r 1.470272 0 2 cbr 512 ------- 2 0.0 2.0 115 115
- 1.474848 0 2 cbr 512 ------- 2 0.0 2.0 119 119
+ 1.475 0 2 cbr 512 ------- 2 0.0 2.0 195 195
r 1.478464 0 2 cbr 512 ------- 2 0.0 2.0 116 116
+ 1.48 0 2 cbr 512 ------- 2 0.0 2.0 196 196
d 1.48 0 2 cbr 512 ------- 2 0.0 2.0 196 196
- 1.48304 0 2 cbr 512 ------- 2 0.0 2.0 120 120
+ 1.485 0 2 cbr 512 ------- 2 0.0 2.0 197 197
r 1.486656 0 2 cbr 512 ------- 2 0.0 2.0 117 117
+ 1.49 0 2 cbr 512 ------- 2 0.0 2.0 198 198
d 1.49 0 2 cbr 512 ------- 2 0.0 2.0 198 198
- 1.491232 0 2 cbr 512 ------- 2 0.0 2.0 121 121
r 1.494848 0 2 cbr 512 ------- 2 0.0 2.0 118 118
+ 1.495 0 2 cbr 512 ------- 2 0.0 2.0 199 199
- 1.499424 0 2 cbr 512 ------- 2 0.0 2.0 122 122
+ 1.5 0 2 cbr 512 ------- 2 0.0 2.0 200 200
r 1.50304 0 2 cbr 512 ------- 2 0.0 2.0 119 119
+ 1.505 0 2 cbr 512 ------- 2 0.0 2.0 201 201
d 1.505 0 2 cbr 512 ------- 2 0.0 2.0 201 201
- 1.507616 0 2 cbr 512 ------- 2 0.0 2.0 123 123
+ 1.51 0 2 cbr 512 ------- 2 0.0 2.0 202 202
r 1.511232 0 2 cbr 512 ------- 2 0.0 2.0 120 120
+ 1.515 0 2 cbr 512 ------- 2 0.0 2.0 203 203
d 1.515 0 2 cbr 512 ------- 2 0.0 2.0 203 203
- 1.515808 0 2 cbr 512 ------- 2 0.0 2.0 124 124
r 1.519424 0 2 cbr 512 ------- 2 0.0 2.0 121 121
+ 1.52 0 2 cbr 512 ------- 2 0.0 2.0 204 204
- 1.524 0 2 cbr 512 ------- 2 0.0 2.0 125 125
+ 1.525 0 2 cbr 512 ------- 2 0.0 2.0 205 205
r 1.527616 0 2 cbr 512 ------- 2 0.0 2.0 122 122
+ 1.53 0 2 cbr 512 ------- 2 0.0 2.0 206 206
d 1.53 0 2 cbr 512 ------- 2 0.0 2.0 206 206
- 1.532192 0 2 cbr 512 ------- 2 0.0 2.0 127 127
+ 1.535 0 2 cbr 512 ------- 2 0.0 2.0 207 207
r 1.535808 0 2 cbr 512 ------- 2 0.0 2.0 123 123
+ 1.54 0 2 cbr 512 ------- 2 0.0 2.0 208 208
d 1.54 0 2 cbr 512 ------- 2 0.0 2.0 208 208
- 1.540384 0 2 cbr 512 ------- 2 0.0 2.0 128 128
r 1.544 0 2 cbr 512 ------- 2 0.0 2.0 124 124
+ 1.545 0 2 cbr 512 ------- 2 0.0 2.0 209 209
- 1.548576 0 2 cbr 512 ------- 2 0.0 2.0 130 130
+ 1.55 0 2 cbr 512 ------- 2 0.0 2.0 210 210
r 1.552192 0 2 cbr 512 ------- 2 0.0 2.0 125 125
+ 1.555 0 2 cbr 512 ------- 2 0.0 2.0 211 211
d 1.555 0 2 cbr 512 ------- 2 0.0 2.0 211 211
- 1.556768 0 2 cbr 512 ------- 2 0.0 2.0 132 132
+ 1.56 0 2 cbr 512 ------- 2 0.0 2.0 212 212
r 1.560384 0 2 cbr 512 ------- 2 0.0 2.0 127 127
- 1.56496 0 2 cbr 512 ------- 2 0.0 2.0 133 133
+ 1.565 0 2 cbr 512 ------- 2 0.0 2.0 213 213
r 1.568576 0 2 cbr 512 ------- 2 0.0 2.0 128 128
+ 1.57 0 2 cbr 512 ------- 2 0.0 2.0 214 214
d 1.57 0 2 cbr 512 ------- 2 0.0 2.0 214 214
- 1.573152 0 2 cbr 512 ------- 2 0.0 2.0 135 135
+ 1.575 0 2 cbr 512 ------- 2 0.0 2.0 215 215
r 1.576768 0 2 cbr 512 ------- 2 0.0 2.0 130 130
+ 1.58 0 2 cbr 512 ------- 2 0.0 2.0 216 216
d 1.58 0 2 cbr 512 ------- 2 0.0 2.0 216 216
- 1.581344 0 2 cbr 512 ------- 2 0.0 2.0 136 136
r 1.58496 0 2 cbr 512 ------- 2 0.0 2.0 132 132
+ 1.585 0 2 cbr 512 ------- 2 0.0 2.0 217 217
- 1.589536 0 2 cbr 512 ------- 2 0.0 2.0 138 138
+ 1.59 0 2 cbr 512 ------- 2 0.0 2.0 218 218
r 1.593152 0 2 cbr 512 ------- 2 0.0 2.0 133 133
+ 1.595 0 2 cbr 512 ------- 2 0.0 2.0 219 219
d 1.595 0 2 cbr 512 ------- 2 0.0 2.0 219 219
- 1.597728 0 2 cbr 512 ------- 2 0.0 2.0 140 140
+ 1.6 0 2 cbr 512 ------- 2 0.0 2.0 220 220
r 1.601344 0 2 cbr 512 ------- 2 0.0 2.0 135 135
+ 1.605 0 2 cbr 512 ------- 2 0.0 2.0 221 221
d 1.605 0 2 cbr 512 ------- 2 0.0 2.0 221 221
- 1.60592 0 2 cbr 512 ------- 2 0.0 2.0 141 141
r 1.609536 0 2 cbr 512 ------- 2 0.0 2.0 136 136
+ 1.61 0 2 cbr 512 ------- 2 0.0 2.0 222 222
- 1.614112 0 2 cbr 512 ------- 2 0.0 2.0 143 143
+ 1.615 0 2 cbr 512 ------- 2 0.0 2.0 223 223
r 1.617728 0 2 cbr 512 ------- 2 0.0 2.0 138 138
+ 1.62 0 2 cbr 512 ------- 2 0.0 2.0 224 224
d 1.62 0 2 cbr 512 ------- 2 0.0 2.0 224 224
- 1.622304 0 2 cbr 512 ------- 2 0.0 2.0 145 145
+ 1.625 0 2 cbr 512 ------- 2 0.0 2.0 225 225
r 1.62592 0 2 cbr 512 ------- 2 0.0 2.0 140 140
+ 1.63 0 2 cbr 512 ------- 2 0.0 2.0 226 226
d 1.63 0 2 cbr 512 ------- 2 0.0 2.0 226 226
- 1.630496 0 2 cbr 512 ------- 2 0.0 2.0 146 146
r 1.634112 0 2 cbr 512 ------- 2 0.0 2.0 141 141
+ 1.635 0 2 cbr 512 ------- 2 0.0 2.0 227 227
- 1.638688 0 2 cbr 512 ------- 2 0.0 2.0 148 148
+ 1.64 0 2 cbr 512 ------- 2 0.0 2.0 228 228
r 1.642304 0 2 cbr 512 ------- 2 0.0 2.0 143 143
+ 1.645 0 2 cbr 512 ------- 2 0.0 2.0 229 229
d 1.645 0 2 cbr 512 ------- 2 0.0 2.0 229 229
- 1.64688 0 2 cbr 512 ------- 2 0.0 2.0 150 150
+ 1.65 0 2 cbr 512 ------- 2 0.0 2.0 230 230
r 1.650496 0 2 cbr 512 ------- 2 0.0 2.0 145 145
+ 1.655 0 2 cbr 512 ------- 2 0.0 2.0 231 231
d 1.655 0 2 cbr 512 ------- 2 0.0 2.0 231 231
- 1.655072 0 2 cbr 512 ------- 2 0.0 2.0 151 151
r 1.658688 0 2 cbr 512 ------- 2 0.0 2.0 146 146
+ 1.66 0 2 cbr 512 ------- 2 0.0 2.0 232 232
- 1.663264 0 2 cbr 512 ------- 2 0.0 2.0 153 153
+ 1.665 0 2 cbr 512 ------- 2 0.0 2.0 233 233
r 1.66688 0 2 cbr 512 ------- 2 0.0 2.0 148 148
+ 1.67 0 2 cbr 512 ------- 2 0.0 2.0 234 234
d 1.67 0 2 cbr 512 ------- 2 0.0 2.0 234 234
- 1.671456 0 2 cbr 512 ------- 2 0.0 2.0 155 155
+ 1.675 0 2 cbr 512 ------- 2 0.0 2.0 235 235
r 1.675072 0 2 cbr 512 ------- 2 0.0 2.0 150 150
- 1.679648 0 2 cbr 512 ------- 2 0.0 2.0 156 156
+ 1.68 0 2 cbr 512 ------- 2 0.0 2.0 236 236
r 1.683264 0 2 cbr 512 ------- 2 0.0 2.0 151 151
+ 1.685 0 2 cbr 512 ------- 2 0.0 2.0 237 237
d 1.685 0 2 cbr 512 ------- 2 0.0 2.0 237 237
- 1.68784 0 2 cbr 512 ------- 2 0.0 2.0 158 158
+ 1.69 0 2 cbr 512 ------- 2 0.0 2.0 238 238
r 1.691456 0 2 cbr 512 ------- 2 0.0 2.0 153 153
+ 1.695 0 2 cbr 512 ------- 2 0.0 2.0 239 239
d 1.695 0 2 cbr 512 ------- 2 0.0 2.0 239 239
- 1.696032 0 2 cbr 512 ------- 2 0.0 2.0 159 159
r 1.699648 0 2 cbr 512 ------- 2 0.0 2.0 155 155
+ 1.7 0 2 cbr 512 ------- 2 0.0 2.0 240 240
- 1.704224 0 2 cbr 512 ------- 2 0.0 2.0 161 161
+ 1.705 0 2 cbr 512 ------- 2 0.0 2.0 241 241
r 1.70784 0 2 cbr 512 ------- 2 0.0 2.0 156 156
+ 1.71 0 2 cbr 512 ------- 2 0.0 2.0 242 242
d 1.71 0 2 cbr 512 ------- 2 0.0 2.0 242 242
- 1.712416 0 2 cbr 512 ------- 2 0.0 2.0 163 163
+ 1.715 0 2 cbr 512 ------- 2 0.0 2.0 243 243
r 1.716032 0 2 cbr 512 ------- 2 0.0 2.0 158 158
+ 1.72 0 2 cbr 512 ------- 2 0.0 2.0 244 244
d 1.72 0 2 cbr 512 ------- 2 0.0 2.0 244 244
- 1.720608 0 2 cbr 512 ------- 2 0.0 2.0 164 164
r 1.724224 0 2 cbr 512 ------- 2 0.0 2.0 159 159
+ 1.725 0 2 cbr 512 ------- 2 0.0 2.0 245 245
- 1.7288 0 2 cbr 512 ------- 2 0.0 2.0 166 166
+ 1.73 0 2 cbr 512 ------- 2 0.0 2.0 246 246
r 1.732416 0 2 cbr 512 ------- 2 0.0 2.0 161 161
+ 1.735 0 2 cbr 512 ------- 2 0.0 2.0 247 247
d 1.735 0 2 cbr 512 ------- 2 0.0 2.0 247 247
- 1.736992 0 2 cbr 512 ------- 2 0.0 2.0 168 168
+ 1.74 0 2 cbr 512 ------- 2 0.0 2.0 248 248
r 1.740608 0 2 cbr 512 ------- 2 0.0 2.0 163 163
+ 1.745 0 2 cbr 512 ------- 2 0.0 2.0 249 249
d 1.745 0 2 cbr 512 ------- 2 0.0 2.0 249 249
- 1.745184 0 2 cbr 512 ------- 2 0.0 2.0 169 169
r 1.7488 0 2 cbr 512 ------- 2 0.0 2.0 164 164
+ 1.75 0 2 cbr 512 ------- 2 0.0 2.0 250 250
- 1.753376 0 2 cbr 512 ------- 2 0.0 2.0 171 171
+ 1.755 0 2 cbr 512 ------- 2 0.0 2.0 251 251
r 1.756992 0 2 cbr 512 ------- 2 0.0 2.0 166 166
+ 1.76 0 2 cbr 512 ------- 2 0.0 2.0 252 252
d 1.76 0 2 cbr 512 ------- 2 0.0 2.0 252 252
- 1.761568 0 2 cbr 512 ------- 2 0.0 2.0 173 173
+ 1.765 0 2 cbr 512 ------- 2 0.0 2.0 253 253
r 1.765184 0 2 cbr 512 ------- 2 0.0 2.0 168 168
- 1.76976 0 2 cbr 512 ------- 2 0.0 2.0 174 174
+ 1.77 0 2 cbr 512 ------- 2 0.0 2.0 254 254
r 1.773376 0 2 cbr 512 ------- 2 0.0 2.0 169 169
+ 1.775 0 2 cbr 512 ------- 2 0.0 2.0 255 255
d 1.775 0 2 cbr 512 ------- 2 0.0 2.0 255 255
- 1.777952 0 2 cbr 512 ------- 2 0.0 2.0 176 176
+ 1.78 0 2 cbr 512 ------- 2 0.0 2.0 256 256
r 1.781568 0 2 cbr 512 ------- 2 0.0 2.0 171 171
+ 1.785 0 2 cbr 512 ------- 2 0.0 2.0 257 257
d 1.785 0 2 cbr 512 ------- 2 0.0 2.0 257 257
- 1.786144 0 2 cbr 512 ------- 2 0.0 2.0 177 177
r 1.78976 0 2 cbr 512 ------- 2 0.0 2.0 173 173
+ 1.79 0 2 cbr 512 ------- 2 0.0 2.0 258 258
- 1.794336 0 2 cbr 512 ------- 2 0.0 2.0 179 179
+ 1.795 0 2 cbr 512 ------- 2 0.0 2.0 259 259
r 1.797952 0 2 cbr 512 ------- 2 0.0 2.0 174 174
+ 1.8 0 2 cbr 512 ------- 2 0.0 2.0 260 260
d 1.8 0 2 cbr 512 ------- 2 0.0 2.0 260 260
- 1.802528 0 2 cbr 512 ------- 2 0.0 2.0 181 181
+ 1.805 0 2 cbr 512 ------- 2 0.0 2.0 261 261
r 1.806144 0 2 cbr 512 ------- 2 0.0 2.0 176 176
+ 1.81 0 2 cbr 512 ------- 2 0.0 2.0 262 262
d 1.81 0 2 cbr 512 ------- 2 0.0 2.0 262 262
- 1.81072 0 2 cbr 512 ------- 2 0.0 2.0 182 182
r 1.814336 0 2 cbr 512 ------- 2 0.0 2.0 177 177
+ 1.815 0 2 cbr 512 ------- 2 0.0 2.0 263 263
- 1.818912 0 2 cbr 512 ------- 2 0.0 2.0 184 184
+ 1.82 0 2 cbr 512 ------- 2 0.0 2.0 264 264
r 1.822528 0 2 cbr 512 ------- 2 0.0 2.0 179 179
+ 1.825 0 2 cbr 512 ------- 2 0.0 2.0 265 265
d 1.825 0 2 cbr 512 ------- 2 0.0 2.0 265 265
- 1.827104 0 2 cbr 512 ------- 2 0.0 2.0 186 186
+ 1.83 0 2 cbr 512 ------- 2 0.0 2.0 266 266
r 1.83072 0 2 cbr 512 ------- 2 0.0 2.0 181 181
+ 1.835 0 2 cbr 512 ------- 2 0.0 2.0 267 267
d 1.835 0 2 cbr 512 ------- 2 0.0 2.0 267 267
- 1.835296 0 2 cbr 512 ------- 2 0.0 2.0 187 187
r 1.838912 0 2 cbr 512 ------- 2 0.0 2.0 182 182
+ 1.84 0 2 cbr 512 ------- 2 0.0 2.0 268 268
- 1.843488 0 2 cbr 512 ------- 2 0.0 2.0 189 189